ITEM: TIMESTEP
100000
ITEM: NUMBER OF ATOMS
1000
ITEM: BOX BOUNDS pp pp ff
5.0000000000000003e-02 6.5378699999999995e+01
2.9999999999999999e-02 6.5358699999999999e+01
0.0000000000000000e+00 6.5338700000000003e+01
ITEM: ATOMS id type xu yu zu 
984 1 29.5326 3.95753 23.494 
107 1 0.978231 5.88404 23.3046 
961 1 21.246 6.12638 23.413 
131 1 11.6543 20.7529 24.2208 
135 1 18.4155 24.3916 22.193 
915 1 13.5716 1.10696 22.1396 
883 1 6.9507 19.5568 24.348 
180 1 2.19783 19.7706 23.2201 
182 1 20.6263 24.6102 25.1252 
110 1 28.1473 24.4935 21.6204 
248 1 11.1038 9.50773 23.3773 
871 1 3.43761 9.59295 21.7407 
264 1 21.3873 14.1318 21.4829 
196 1 32.059 30.7743 18.374 
828 1 20.4489 19.6557 24.4896 
790 1 22.0313 30.5706 22.7407 
743 1 6.57806 3.12788 24.8109 
351 1 29.6025 10.0563 21.5893 
372 1 1.44035 26.5622 23.5623 
397 1 11.1539 30.3846 23.7559 
732 1 14.9089 6.78664 23.9688 
704 1 22.7055 9.85006 23.8509 
454 1 31.4678 20.8762 24.8432 
466 1 29.5527 30.9929 23.0458 
476 1 23.6122 19.3567 22.3918 
489 1 24.9803 14.3166 25.4902 
679 1 15.5034 14.8859 23.8286 
656 1 7.04603 5.8466 22.7938 
117 1 22.4341 13.8624 15.7817 
118 1 31.4941 20.905 14.9677 
620 1 31.9823 9.73213 25.9346 
646 1 6.39854 26.6506 21.5546 
648 1 31.5245 26.4371 21.0738 
72 1 19.6614 27.1236 14.3669 
996 1 15.8597 22.2555 17.5357 
941 1 19.2101 3.77577 17.2195 
933 1 17.842 13.2363 19.2613 
918 1 17.2454 16.0339 15.2261 
912 1 27.3085 4.92174 15.3011 
895 1 6.28963 22.0653 19.5127 
880 1 24.6765 27.5764 14.4221 
864 1 32.211 12.944 22.3926 
835 1 15.1338 1.63127 16.6828 
787 1 32.2239 18.0927 18.2515 
778 1 22.4567 6.83917 18.3592 
750 1 10.0953 21.7943 20.9083 
720 1 4.65866 14.7981 21.1812 
650 1 13.0508 17.6796 16.2009 
614 1 27.3271 4.5394 20.4081 
611 1 5.71215 28.8444 17.1048 
609 1 16.2542 8.86813 15.489 
602 1 26.3719 12.022 19.8098 
586 1 9.94781 14.9788 13.4765 
585 1 12.2427 23.7337 14.361 
581 1 13.8141 14.8983 20.1554 
580 1 27.4458 31.2018 18.3196 
542 1 7.27769 10.3171 16.9664 
533 1 24.7094 23.8523 18.8259 
520 1 12.4299 0.922098 18.8633 
502 1 22.0046 20.855 16.6729 
438 1 11.7184 31.8005 17.141 
435 1 2.43333 23.4659 16.7126 
426 1 19.3847 32.1372 19.0852 
408 1 31.5803 5.5769 16.6414 
381 1 8.91633 6.43811 15.4142 
368 1 4.43297 13.2451 17.5945 
361 1 25.1016 19.0398 14.2743 
339 1 15.7537 28.4023 19.9009 
325 1 6.38743 1.97793 17.7034 
305 1 13.1051 25.315 18.7552 
243 1 4.35305 17.7195 15.1426 
173 1 13.6261 11.4592 25.5884 
200 1 15.1156 7.9575 20.6471 
145 1 8.76373 15.3278 21.0103 
188 1 28.7975 14.4492 17.3752 
833 1 5.17886 16.8355 25.472 
853 1 14.6628 18.1953 26.0814 
102 1 66.0463 5.58107 20.3658 
4 1 30.9756 3.05865 31.3 
5 1 5.05608 25.3942 29.231 
8 1 2.43431 28.3889 33.5303 
17 1 26.3467 11.6139 32.2337 
29 1 19.0575 14.8013 30.5682 
50 1 11.2153 15.362 29.4408 
78 1 5.14576 27.9549 35.8196 
80 1 19.445 26.6991 32.0439 
83 1 8.05741 24.3398 32.8911 
120 1 28.8428 26.0455 34.1911 
128 1 23.2214 30.4458 31.8581 
211 1 8.99201 12.87 32.2048 
234 1 11.0201 6.40597 32.6639 
249 1 16.8914 10.6952 36.3682 
587 1 2.94024 24.3998 26.2682 
303 1 13.9306 23.142 33.7725 
312 1 9.80724 18.8564 33.98 
364 1 10.7667 30.5639 32.04 
379 1 4.92002 31.381 29.5761 
440 1 20.1986 5.59899 34.133 
442 1 30.7988 32.0565 35.8039 
472 1 21.5453 0.849379 32.5105 
474 1 24.8797 21.4743 33.9867 
478 1 27.6163 7.90103 29.1033 
484 1 25.0808 12.0607 35.2062 
530 1 19.9342 20.2359 29.9719 
543 1 27.7108 18.291 35.8973 
550 1 14.8702 17.8738 35.5127 
552 1 19.359 30.0692 34.0236 
553 1 9.63215 8.93124 29.9537 
563 1 15.7471 2.05977 29.9757 
606 1 17.8676 8.43044 32.172 
615 1 30.1669 15.9836 32.7454 
665 1 6.43346 11.4942 36.551 
671 1 1.46943 8.83725 30.8389 
678 1 10.9311 0.579426 32.0421 
691 1 20.8973 7.2334 29.0943 
718 1 13.2438 3.28879 34.6786 
725 1 28.1909 27.0879 30.0343 
759 1 23.3398 26.2894 36.067 
765 1 26.8482 5.99163 35.9758 
802 1 5.36745 3.12802 31.3467 
807 1 13.3625 23.2709 30.3734 
809 1 3.30918 18.5114 32.5544 
831 1 25.9013 19.8839 28.9962 
916 1 15.3732 14.1944 30.9242 
991 1 4.69571 11.6824 32.8083 
39 1 16.805 30.1084 28.0029 
115 1 23.2937 1.71767 27.4799 
977 1 8.55567 14.0483 26.6055 
67 1 66.0608 3.59811 37.1205 
970 1 22.4413 29.2129 28.2206 
445 1 27.2657 2.47623 26.971 
738 1 32.7011 0.678796 28.6189 
255 1 15.6418 5.70186 27.3297 
280 1 14.0555 2.18112 26.5327 
568 1 26.7069 30.6981 26.8436 
293 1 8.12024 3.74621 28.1903 
333 1 26.2596 22.4271 26.3921 
143 1 16.0735 23.3412 26.3347 
410 1 12.2088 25.4429 27.4902 
653 1 30.1289 4.55892 36.4708 
654 1 31.9937 25.482 38.8972 
500 1 20.248 11.8006 28.6729 
546 1 8.30376 27.7721 27.1517 
6 1 2.41065 0.887147 38.7805 
141 1 8.56436 30.9584 36.8983 
990 1 27.4287 23.7474 37.672 
174 1 14.452 28.3001 36.8868 
578 1 0.806796 9.47122 37.6717 
197 1 21.239 13.8974 37.1569 
937 1 18.4018 24.4729 38.392 
340 1 4.76263 21.3318 36.6607 
415 1 16.8669 18.1862 38.7413 
926 1 10.2292 2.10283 37.601 
477 1 4.92075 15.7318 37.4427 
523 1 21.2398 17.9578 36.7397 
876 1 22.1946 1.56766 37.142 
875 1 11.8067 14.2533 37.6857 
854 1 6.17968 5.30843 36.916 
812 1 32.3688 18.1615 34.4795 
719 1 65.7722 19.2669 37.0874 
108 1 32.32 19.1359 31.1336 
985 1 3.27333 30.2357 38.6956 
549 1 29.136 30.9402 39.2316 
238 1 1.62874 10.289 26.249 
995 1 16.4196 2.06998 39.6513 
37 1 12.1224 8.47341 39.5138 
974 1 9.17777 22.384 39.8355 
119 1 20.5271 10.9647 42.3459 
23 1 10.9724 21.9756 43.8198 
165 1 1.53129 25.5639 39.85 
167 1 11.5294 8.71924 44.2435 
940 1 20.0106 7.48198 40.338 
934 1 17.8511 27.3935 41.0393 
257 1 31.0087 18.4044 42.0941 
273 1 2.52247 15.2112 40.1678 
309 1 3.37977 2.35792 42.9616 
334 1 9.33637 4.74782 43.1614 
927 1 14.4704 11.6907 41.4397 
345 1 4.36865 14.8211 43.3101 
369 1 24.6276 11.2767 43.5471 
391 1 8.48275 31.3091 43.5977 
900 1 1.43987 21.3182 43.195 
447 1 30.8684 13.66 40.811 
456 1 5.55308 27.4584 41.9532 
888 1 25.7892 8.73579 39.7927 
522 1 10.8269 16.8871 42.1687 
847 1 16.6884 4.39498 42.8989 
524 1 21.9544 22.3394 41.8603 
824 1 24.2905 16.6359 40.2569 
551 1 14.3879 21.3522 43.2539 
567 1 24.9323 24.8424 40.5756 
793 1 9.215 5.56437 39.5559 
55 1 16.3957 5.68017 46.6631 
780 1 13.9265 24.1135 41.0662 
770 1 24.6667 2.44037 41.9418 
682 1 4.85813 7.33584 40.6042 
690 1 26.9954 26.392 43.12 
729 1 16.887 30.8549 40.3242 
856 1 26.1898 32.3535 47.8924 
30 1 25.421 12.2192 47.9315 
988 1 1.3428 8.62134 46.2359 
54 1 2.35044 14.8764 49.3613 
968 1 24.7466 29.689 45.3801 
965 1 11.2543 28.1622 46.5926 
963 1 27.2055 3.27738 51.761 
949 1 15.3261 21.7068 50.8319 
942 1 30.0074 19.6424 50.7138 
929 1 10.1427 13.055 47.496 
919 1 19.1364 28.641 44.3369 
886 1 6.22047 17.6833 44.9788 
885 1 15.535 16.7111 49.7746 
881 1 19.288 3.40249 46.29 
857 1 20.8997 18.8736 48.7687 
993 1 0.398546 30.2364 47.0992 
808 1 24.5129 5.01456 45.6503 
757 1 5.55384 31.6963 47.1877 
645 1 24.9199 21.7416 47.7591 
624 1 27.1678 5.78 49.197 
604 1 27.2825 30.4131 50.7863 
603 1 2.35372 2.01782 47.892 
593 1 28.4603 7.28291 43.9648 
536 1 20.0874 31.2833 49.2199 
531 1 27.8575 9.29113 51.096 
526 1 19.3104 6.15544 49.4819 
486 1 29.3557 22.0445 45.9905 
480 1 23.7837 16.0401 44.3819 
462 1 19.7936 14.0975 48.0546 
461 1 7.71606 19.7391 51.8576 
386 1 7.38858 29.1649 50.2639 
370 1 7.99974 5.04314 46.8321 
358 1 21.7528 24.9273 49.6786 
357 1 29.9865 27.4039 46.1058 
327 1 26.2806 16.3542 49.0779 
307 1 16.6307 2.40658 51.4148 
259 1 12.0775 10.1147 50.1321 
221 1 30.379 6.51521 47.2821 
195 1 15.8171 27.0409 48.4657 
183 1 12.0751 2.84672 48.4567 
150 1 17.9463 20.3097 45.0885 
144 1 14.3096 13.9789 46.2897 
105 1 26.8055 18.8424 43.8405 
58 1 3.88676 22.8131 49.8318 
630 1 0.100919 6.65188 43.3411 
68 1 30.5791 0.183503 40.3361 
855 1 4.38188 7.60519 53.1298 
12 1 24.1762 12.3853 52.603 
554 1 17.9856 54.0789 12.7935 
14 1 24.9014 41.5181 21.9065 
945 1 15.0603 42.1335 21.8808 
25 1 0.866984 60.8805 20.8768 
34 1 8.96465 40.8818 22.9868 
920 1 1.04498 56.2248 25.5579 
86 1 25.7894 54.9935 23.5587 
88 1 8.55628 47.4919 25.8781 
878 1 26.3683 49.8448 22.8305 
152 1 18.1582 50.4206 20.6194 
865 1 19.4762 54.6024 23.4685 
205 1 1.87836 39.4038 24.2964 
232 1 18.6985 46.3422 22.4043 
863 1 29.4236 41.6667 22.0698 
256 1 21.819 42.8569 24.3469 
693 1 31.6733 45.4389 24.1872 
300 1 6.65458 55.8934 20.9665 
852 1 11.394 61.9215 24.7587 
354 1 7.262 34.4927 22.7245 
838 1 25.8773 59.2987 23.4607 
399 1 10.9853 59.6294 21.4826 
412 1 0.659271 49.6729 24.3797 
816 1 20.3182 62.125 23.146 
777 1 31.5628 37.7512 25.6555 
537 1 1.6069 34.963 24.8581 
557 1 5.43983 52.8853 24.2798 
595 1 11.666 51.2409 21.8906 
628 1 3.66503 61.2796 23.3537 
659 1 29.5194 63.0115 22.4376 
754 1 15.1377 34.4194 23.2279 
749 1 2.91627 45.5589 25.5208 
748 1 23.4904 48.7549 25.3622 
677 1 16.9279 62.4322 25.4272 
687 1 13.2355 47.7832 24.1579 
712 1 18.7358 36.0239 22.0705 
9 1 5.12357 59.3992 14.4055 
989 1 26.4388 63.7515 20.3307 
972 1 31.0141 61.1333 18.9393 
962 1 30.8231 63.1031 15.4474 
952 1 3.33987 45.1479 14.1945 
947 1 27.1696 38.2096 15.4158 
930 1 20.0503 42.4047 18.5777 
924 1 16.2749 58.7169 13.2154 
902 1 21.2569 52.522 15.7444 
889 1 21.702 64.607 15.6087 
870 1 12.9327 39.5051 14.2623 
848 1 8.46434 44.4072 17.4812 
827 1 8.07138 34.6983 17.6838 
814 1 26.4934 55.7791 17.1923 
789 1 17.7681 47.6243 14.3831 
709 1 19.8279 34.9154 15.6617 
706 1 31.1061 43.404 13.4404 
702 1 17.88 48.2436 17.7839 
701 1 31.0106 34.8555 16.6405 
696 1 7.65319 50.2944 16.0252 
689 1 18.8608 40.9477 14.2775 
670 1 13.1429 36.3307 20.645 
616 1 13.8542 62.3048 19.6097 
584 1 23.2315 54.7041 19.6006 
213 1 4.09129 -0.417159 19.6577 
527 1 27.8087 52.0388 16.3956 
509 1 3.11452 45.1742 21.1746 
504 1 9.78293 34.4794 14.2635 
468 1 25.3256 46.1504 18.2559 
467 1 0.883221 34.6018 17.5552 
448 1 23.9819 34.3281 19.7036 
436 1 5.60825 42.7846 19.4376 
421 1 32.4887 51.8957 16.618 
402 1 1.68916 59.059 14.2947 
387 1 25.336 59.7934 16.8624 
292 1 4.03738 38.6224 14.3637 
290 1 22.2158 62.1437 20.0289 
223 1 19.9857 56.9805 17.7373 
220 1 3.23421 53.1593 20.2551 
216 1 28.9571 44.432 16.0109 
176 1 9.42614 58.1377 19.0829 
13 1 11.923 59.1303 16.211 
163 1 10.6372 41.2475 18.4126 
146 1 5.58747 37.7403 18.7567 
112 1 15.8412 54.7002 20.6669 
100 1 16.5266 41.066 17.3905 
79 1 12.5263 51.1716 17.4725 
70 1 10.7115 48.0752 19.7609 
44 1 27.8129 34.1045 20.8732 
38 1 29.3391 49.7235 20.3394 
768 1 65.569 55.7363 15.2816 
285 1 23.7366 62.5132 25.8766 
716 1 22.4672 39.0024 25.5228 
547 1 18.921 58.8308 37.4545 
56 1 17.6867 39.1151 31.7428 
62 1 21.5357 40.0683 32.8239 
109 1 5.38903 47.627 33.148 
122 1 11.8856 36.0276 34.7008 
138 1 3.80555 57.5323 32.8603 
170 1 9.7678 33.0234 29.21 
190 1 9.12819 47.6876 32.689 
198 1 1.82258 34.6093 34.0886 
230 1 10.6482 39.328 32.4115 
262 1 15.3546 37.7942 35.9227 
263 1 30.7175 40.551 33.6724 
265 1 10.8325 55.0306 30.1561 
289 1 10.4152 41.0297 35.6176 
331 1 24.9366 35.0943 35.1061 
406 1 28.8229 40.4439 31.4733 
422 1 14.9587 50.9629 32.4846 
427 1 2.10786 44.4126 28.8458 
457 1 16.0634 63.5297 35.2646 
459 1 26.7829 45.0774 34.4428 
460 1 7.27474 35.0042 30.4016 
350 1 3.01769 0.0320498 27.32 
488 1 1.46297 36.4028 30.1964 
511 1 17.4972 46.2087 36.6243 
561 1 31.1113 55.0359 30.7242 
607 1 27.7231 33.6058 29.1992 
625 1 24.9657 62.6645 31.793 
635 1 5.69827 55.295 28.8974 
637 1 16.5018 58.6604 30.4164 
649 1 3.452 64.8755 35.2827 
662 1 8.44577 43.5987 30.8564 
675 1 11.9708 56.0001 35.5373 
685 1 23.3711 57.7566 33.5478 
751 1 24.2858 42.4603 32.6078 
755 1 5.65193 50.1607 35.8525 
756 1 22.4924 53.8674 31.8573 
763 1 21.8216 49.1423 31.2056 
773 1 16.6899 33.9813 31.9732 
779 1 16.3192 56.3558 33.9294 
819 1 18.1099 46.7576 32.7367 
830 1 2.50315 40.0373 32.3345 
842 1 6.55389 61.5778 34.144 
891 1 26.5762 58.6274 32.1416 
897 1 24.67 40.4676 35.9292 
908 1 28.7838 60.2383 35.5589 
948 1 26.4825 51.9931 34.3464 
953 1 26.1976 45.8839 30.3536 
957 1 16.0363 59.6599 33.6954 
960 1 17.6498 40.7658 28.9512 
1000 1 8.329 62.6256 30.516 
482 1 0.327085 49.6059 29.6473 
51 1 29.32 48.3517 27.0439 
148 1 10.5404 58.7674 28.6383 
172 1 8.27838 42.5087 27.7137 
251 1 17.465 56.0785 27.0414 
336 1 16.9975 43.5285 26.3696 
389 1 12.0575 45.1388 29.6104 
515 1 20.6348 47.2981 27.7583 
525 1 31.0278 53.9207 27.4174 
666 1 13.6035 38.1019 26.4624 
475 1 5.44837 43.6675 37.3523 
767 1 20.133 35.0831 27.0615 
667 1 16.6262 51.9984 27.6287 
672 1 27.0504 57.5802 28.4273 
322 1 31.8648 59.6469 31.7063 
728 1 19.4696 63.6258 28.2552 
723 1 5.94833 34.4367 26.4104 
18 1 32.6818 41.6801 27.9665 
998 1 6.19945 37.6961 36.9434 
142 1 21.949 46.7258 39.0855 
149 1 15.9571 51.4653 36.9802 
169 1 1.19503 56.6085 38.2486 
911 1 4.94212 58.3027 37.2381 
219 1 11.0807 33.1772 38.6053 
306 1 10.1179 44.4807 39.0228 
862 1 23.5389 33.9655 38.3691 
861 1 31.8917 63.899 37.4866 
829 1 28.7123 50.995 36.0622 
308 1 13.4123 64.869 38.4085 
591 1 28.3315 55.1415 37.2011 
589 1 24.2446 53.8497 37.1675 
346 1 9.97891 58.5345 36.7785 
418 1 23.6723 62.2837 38.457 
774 1 4.38006 58.8958 26.1109 
409 1 32.6598 62.4306 46.5722 
89 1 31.5944 58.3428 40.717 
992 1 13.7082 54.5841 40.5838 
975 1 3.83744 50.6454 40.1619 
147 1 9.16806 36.225 40.298 
935 1 26.2073 39.5625 39.5769 
901 1 21.1132 48.0398 42.4908 
187 1 9.34252 53.9484 40.067 
203 1 1.50083 43.0235 42.502 
204 1 4.88335 61.2257 41.459 
867 1 24.3584 49.9054 40.8412 
239 1 13.9131 38.7251 40.4073 
240 1 19.1244 54.3312 41.564 
268 1 8.69794 43.7185 43.5776 
287 1 0.749919 39.3029 42.686 
296 1 30.472 47.2346 43.1628 
788 1 13.297 63.8811 42.5021 
577 1 16.5509 47.3502 40.4069 
324 1 27.4279 51.377 42.1627 
332 1 30.9114 33.4159 42.8666 
565 1 1.11677 58.6726 42.818 
353 1 31.4452 53.0742 42.3828 
365 1 18.7741 43.0873 42.0275 
390 1 30.8711 61.7014 42.7175 
393 1 20.5475 63.2558 41.6549 
401 1 28.4084 42.6217 39.4962 
560 1 7.39241 46.8135 41.3382 
443 1 7.27833 61.7621 39.7744 
558 1 21.8748 58.9869 40.8377 
505 1 4.33786 37.1378 41.629 
1 1 28.8944 42.1737 43.4764 
994 1 25.5747 38.3489 44.7834 
969 1 23.4242 46.7968 50.8611 
955 1 11.6139 42.3958 44.5789 
923 1 28.6177 35.3991 47.1144 
892 1 2.01498 39.1604 49.8312 
868 1 7.84045 56.698 51.9904 
980 1 2.88833 -0.748731 45.5535 
815 1 18.3705 60.1815 43.936 
804 1 10.4743 37.5969 50.4609 
794 1 13.1665 47.6081 51.2034 
786 1 10.2104 64.5608 45.996 
782 1 29.6134 58.272 48.2739 
744 1 8.38577 37.9333 45.7247 
726 1 2.14779 56.9164 45.9094 
721 1 13.1457 34.6872 44.7607 
705 1 2.86247 35.3237 47.5353 
688 1 30.0118 48.1086 50.4825 
652 1 29.0359 56.3503 50.7404 
636 1 13.1683 59.1088 45.1077 
622 1 6.35761 44.276 51.6229 
619 1 23.0227 62.701 45.2168 
612 1 28.9785 51.6789 46.3494 
588 1 31.8005 37.4279 48.0803 
583 1 2.45935 44.9106 48.5438 
556 1 19.926 45.6277 46.6295 
519 1 4.00079 49.9238 46.1442 
512 1 7.3448 55.3114 44.5607 
469 1 1.48198 59.6231 48.4905 
465 1 20.233 39.149 49.9574 
455 1 18.2244 39.5411 45.6539 
414 1 23.6227 43.6081 48.5599 
2 1 21.94 65.2151 50.2614 
375 1 26.9835 48.1792 47.3077 
367 1 10.011 44.3807 47.8819 
337 1 26.4492 61.6568 49.2975 
310 1 4.10399 52.1846 51.46 
304 1 26.2267 57.0187 44.8902 
282 1 16.3079 49.6117 44.7914 
278 1 11.3415 62.6916 49.3432 
260 1 9.24635 60.4176 44.7838 
229 1 16.0061 37.4553 49.7068 
207 1 8.44778 65.1082 51.5221 
151 1 19.7984 57.8252 48.6557 
137 1 11.2681 56.3757 47.9255 
111 1 23.7997 56.9987 50.8646 
103 1 12.5982 50.6916 47.96 
97 1 19.8231 54.6507 50.4955 
84 1 19.9759 35.259 44.2111 
64 1 28.7829 63.9628 44.5696 
63 1 8.49246 52.2152 46.7566 
49 1 22.7349 53.499 46.1558 
91 1 20.5132 38.3249 39.3825 
41 1 32.5885 41.7037 46.971 
27 1 24.743 32.791 42.0335 
53 1 63.2871 26.8843 23.2346 
126 1 61.9697 21.9688 25.4935 
160 1 43.3284 14.1153 25.4703 
194 1 48.5627 18.4609 23.0772 
967 1 43.9882 26.4748 23.1976 
82 1 48.3957 5.48239 14.5892 
231 1 33.7981 6.88161 21.9343 
116 1 54.7703 22.3305 17.4199 
241 1 34.1696 18.852 22.0806 
242 1 34.445 0.313178 25.4754 
574 1 46.3081 32.1608 25.6369 
821 1 49.1201 22.6161 23.4445 
752 1 55.7306 3.02816 24.3435 
314 1 46.9151 13.852 23.7613 
328 1 57.7604 6.86577 22.0989 
736 1 37.6004 24.5493 23.1333 
347 1 56.9803 31.2311 23.4413 
717 1 51.4946 29.872 23.137 
362 1 60.3429 14.1832 24.4649 
411 1 48.787 4.11704 22.1985 
434 1 38.9161 19.5168 25.1439 
481 1 63.9292 3.7916 25.2552 
491 1 42.796 3.90013 24.3675 
501 1 56.6514 24.225 21.8985 
503 1 57.7289 17.177 23.6435 
518 1 46.0827 10.1549 24.3298 
944 1 39.9415 6.85429 25.6934 
669 1 48.5554 27.5979 24.5221 
21 1 36.5942 14.6743 16.5139 
954 1 35.3535 3.23596 18.4158 
951 1 63.5659 8.48085 13.8601 
938 1 55.0999 30.2132 15.9026 
884 1 64.3408 4.84019 16.9904 
882 1 52.7499 21.4599 22.2169 
877 1 52.8699 15.1774 17.1248 
236 1 57.0859 8.67939 25.7455 
841 1 38.6229 5.00341 19.411 
801 1 62.1386 12.2961 15.8711 
766 1 54.5702 9.23601 18.3074 
761 1 49.2898 23.0802 14.4357 
730 1 47.402 32.2169 20.0143 
727 1 40.5695 16.2045 21.6954 
714 1 37.3808 22.2435 19.2526 
708 1 36.2969 28.8377 20.0171 
660 1 55.1407 31.9941 20.0444 
647 1 60.886 25.3272 18.7501 
629 1 62.4678 26.0926 13.7241 
626 1 59.8863 11.6841 18.81 
598 1 64.2995 30.2317 16.7723 
594 1 40.1031 7.04461 21.835 
555 1 34.2201 23.9569 14.9544 
490 1 48.3289 15.0445 17.7373 
483 1 52.5243 6.75561 22.1975 
446 1 40.3773 24.1793 13.7063 
416 1 42.1446 8.3123 17.9804 
413 1 61.3348 20.8142 21.7812 
376 1 42.8668 28.6867 20.1338 
366 1 45.6819 20.7697 20.156 
355 1 63.7208 16.2936 17.0276 
343 1 43.1366 15.9672 16.5449 
326 1 44.7337 6.74965 13.6683 
318 1 63.9318 31.7006 20.5964 
291 1 58.6182 20.4154 14.4211 
288 1 38.9206 25.0531 17.0731 
284 1 51.2141 28.7576 15.9509 
250 1 54.6064 2.65415 17.0712 
246 1 44.1323 27.732 15.8567 
244 1 54.553 13.6259 20.2769 
215 1 60.0538 1.48488 19.2377 
206 1 38.1487 11.8114 20.2458 
191 1 42.9989 20.0871 17.0868 
185 1 35.6881 7.08914 13.7931 
161 1 48.3718 3.09348 18.8367 
133 1 45.7231 10.5562 20.0109 
124 1 57.6151 5.77334 13.162 
839 1 36.8792 11.5204 26.2217 
850 1 56.2313 26.0503 25.5769 
986 1 34.9086 19.925 26.1929 
24 1 41.8666 5.81521 33.5816 
35 1 61.3724 4.40647 30.1208 
60 1 39.6681 26.7794 35.948 
71 1 54.2196 31.1033 31.0739 
297 1 64.8607 8.08248 28.1611 
177 1 63.5959 20.9825 30.249 
254 1 33.3471 32.6177 32.6789 
283 1 40.9018 11.7912 28.0866 
301 1 64.406 15.3759 34.0975 
319 1 39.793 3.99477 31.183 
330 1 52.5797 27.543 33.0723 
373 1 39.2774 17.4455 30.8268 
394 1 52.5045 6.3427 31.0272 
429 1 64.0456 25.2394 32.7192 
439 1 37.4018 21.9432 33.3639 
532 1 62.6158 29.6347 33.9586 
538 1 37.1222 0.934951 34.0773 
566 1 36.8123 30.3863 29.2977 
570 1 32.7069 14.0524 28.7683 
575 1 57.1642 12.1641 30.2731 
631 1 33.7923 26.5237 35.1076 
641 1 46.4487 4.24641 34.0241 
668 1 60.4961 26.3261 34.8135 
686 1 57.6358 20.9545 32.6 
692 1 58.3531 25.9656 28.8113 
694 1 33.1484 6.25392 32.3507 
731 1 54.1687 14.8856 32.3122 
735 1 61.7813 7.17646 33.561 
740 1 33.3609 9.5544 29.4021 
742 1 44.2062 11.4904 33.4047 
758 1 50.0982 20.0881 31.5964 
760 1 40.5818 9.08216 36.988 
771 1 59.8274 15.3069 34.4242 
791 1 50.3244 12.4813 32.2657 
795 1 51.9396 7.26943 34.9785 
94 1 44.9736 32.5678 32.616 
813 1 58.3552 31.039 34.0543 
817 1 47.0837 22.4235 31.2441 
818 1 39.1845 26.4338 30.6479 
832 1 45.2164 13.0058 29.6644 
846 1 41.2917 19.7725 33.6982 
859 1 57.2685 3.95117 31.2477 
873 1 46.5801 3.93876 30.0378 
896 1 58.3603 4.62479 35.5666 
899 1 36.3855 12.1983 34.0365 
905 1 49.5619 21.6477 28.4908 
964 1 56.5797 22.684 35.6399 
983 1 44.5185 25.208 34.5081 
202 1 53.6482 19.1919 27.8015 
806 1 48.2345 29.1058 39.1175 
224 1 59.2816 14.7856 28.006 
971 1 32.8207 25.2579 28.3648 
921 1 42.9249 19.5101 26.5021 
270 1 52.4339 9.05468 27.6033 
74 1 63.5408 32.4981 27.3349 
823 1 42.1947 30.6116 29.1227 
302 1 52.0767 13.5695 28.1945 
784 1 54.6805 4.63115 28.6467 
762 1 46.4954 2.13946 27.0107 
338 1 44.5137 23.2007 28.894 
737 1 64.0624 16.8861 28.1623 
352 1 47.456 8.11836 27.0091 
618 1 51.1817 28.4772 28.5723 
664 1 61.9688 27.7154 28.4506 
19 1 34.123 11.9364 37.5861 
559 1 44.9407 13.9856 36.3059 
879 1 52.9652 18.9248 35.9955 
514 1 40.194 14.7855 38.6753 
76 1 49.649 6.07577 37.3591 
890 1 38.5852 32.2402 33.4867 
159 1 62.5393 14.0917 37.0215 
212 1 36.3029 5.29422 37.5635 
269 1 51.8093 11.1362 37.0034 
382 1 33.1692 18.8533 37.704 
697 1 35.2165 29.5018 26.0414 
396 1 60.3832 0.897411 36.4882 
458 1 48.4562 22.4776 37.0842 
473 1 34.7688 31.5823 38.2679 
683 1 48.2705 17.1734 36.6129 
681 1 60.0454 23.2 38.3644 
673 1 43.3749 2.81818 36.8862 
643 1 57.5345 13.3621 37.7585 
642 1 52.1932 24.1954 37.9877 
623 1 40.6959 22.558 38.0692 
710 1 62.5309 2.87249 39.1925 
956 1 40.4069 15.2171 43.1234 
497 1 38.5709 2.21005 39.1987 
69 1 39.3838 24.5882 40.785 
893 1 37.205 32.0943 49.6638 
95 1 35.7853 6.15244 42.5931 
101 1 49.1592 13.8138 42.5136 
792 1 63.2107 31.2069 39.4508 
166 1 61.5851 11.6741 40.4316 
189 1 48.2889 18.2346 41.0286 
10 1 52.6826 19.4998 46.3708 
746 1 58.5091 9.63567 41.37 
217 1 42.484 31.6761 42.9822 
741 1 55.4495 22.4503 40.9495 
295 1 34.7242 23.6543 41.5092 
313 1 57.5859 19.3071 41.8308 
320 1 47.6326 21.949 42.0977 
377 1 34.5821 31.0378 43.3896 
349 1 59.2959 32.4785 44.6254 
699 1 58.202 2.78312 41.5525 
405 1 54.6465 29.3968 39.2674 
423 1 45.7833 3.62531 43.8461 
431 1 44.2417 12.2704 40.2074 
684 1 60.4493 16.8694 42.3432 
617 1 41.6353 1.84157 41.8846 
610 1 53.8898 11.5479 41.7309 
576 1 45.1238 8.9985 43.169 
534 1 36.7937 18.6192 42.1588 
540 1 51.495 4.41033 41.3559 
548 1 54.6371 29.8615 42.2765 
569 1 54.8981 3.69545 42.961 
3 1 33.4404 19.1788 48.4059 
999 1 62.775 9.04904 48.5754 
978 1 62.8806 26.9237 44.3023 
913 1 38.518 18.1926 45.2393 
909 1 58.1009 2.68655 50.4957 
894 1 37.7938 7.27667 45.5927 
840 1 55.1767 30.1798 47.5842 
836 1 46.6877 18.3987 46.6142 
803 1 52.0534 27.4262 45.3751 
798 1 43.7322 23.456 44.3152 
797 1 45.6355 9.21212 48.4028 
796 1 35.3734 13.7558 51.4313 
785 1 46.7851 16.2942 49.9439 
776 1 40.4682 2.87967 47.8662 
747 1 45.2428 25.0202 48.2347 
715 1 64.5129 10.7882 44.5029 
680 1 64.6771 23.706 45.0977 
651 1 45.6255 21.9263 50.2746 
640 1 36.5773 3.92734 50.4289 
633 1 62.0592 2.34248 46.5107 
545 1 34.6142 27.4548 48.6548 
507 1 45.7145 0.460062 46.0298 
479 1 53.2873 9.3939 51.3772 
464 1 48.5297 4.34171 50.8193 
444 1 50.4084 16.4331 45.9555 
417 1 43.3809 11.7133 44.8356 
407 1 34.3428 23.4661 46.7767 
395 1 35.2273 1.8609 47.3536 
378 1 42.9994 31.4432 50.7915 
849 1 34.2158 8.60519 39.3199 
335 1 42.0381 13.8593 49.9551 
323 1 50.78 10.2843 44.2293 
281 1 58.7377 15.4652 45.8462 
277 1 43.4204 31.3457 46.8104 
267 1 39.6734 24.7536 46.8846 
237 1 56.8681 19.8247 51.1728 
227 1 49.2771 28.6074 50.1039 
201 1 53.551 3.43357 51.5427 
193 1 56.9097 26.2694 48.7509 
186 1 56.027 14.042 48.0992 
179 1 52.9538 22.5377 49.5108 
154 1 33.9937 11.9258 47.1195 
140 1 38.5982 18.5057 49.8572 
139 1 61.6271 23.3325 50.6807 
130 1 48.6448 13.9705 52.0381 
114 1 58.5051 8.91568 46.1184 
98 1 42.5319 2.51657 50.8874 
32 1 46.9204 25.8317 45.0519 
46 1 50.2779 8.32053 47.0287 
36 1 63.4612 18.8108 47.1834 
81 1 33.4467 11.1354 44.04 
192 1 43.8127 30.8194 39.1177 
872 1 62.8208 33.432 12.5707 
976 1 47.8084 38.6683 22.8452 
42 1 39.1017 41.0267 24.3315 
917 1 55.5456 54.7353 25.3456 
644 1 48.7754 64.7285 24.3086 
858 1 43.736 50.0294 23.1584 
805 1 54.4953 39.0851 24.1252 
90 1 60.3188 39.9896 23.8964 
772 1 38.7259 37.2485 22.5294 
753 1 63.461 34.7652 24.2692 
66 1 44.2764 61.6606 19.2898 
208 1 48.2931 42.6779 22.1631 
210 1 47.3057 53.8626 24.7876 
218 1 61.4262 50.0147 24.5144 
258 1 35.4967 38.4611 24.696 
299 1 52.5875 47.7065 24.4284 
329 1 38.6219 44.7719 24.2735 
342 1 37.1359 63.9578 24.0251 
398 1 34.5162 54.7268 25.3082 
77 1 64.1646 44.3806 15.1623 
425 1 60.937 60.5446 23.2294 
676 1 41.565 61.4799 24.0864 
494 1 51.0695 57.9914 23.6842 
498 1 43.4148 49.1866 25.8937 
168 1 -0.907611 60.4379 18.0048 
513 1 36.178 56.0737 22.8381 
592 1 55.2144 50.3643 22.0148 
528 1 49.6868 49.0428 22.7417 
535 1 34.8665 50.4876 21.5903 
155 1 57.5494 62.7956 26.0674 
451 1 57.7692 42.7794 25.3602 
45 1 58.6079 36.0863 21.0492 
987 1 57.3495 42.4702 19.3149 
946 1 58.3397 55.0116 19.7637 
936 1 54.7808 57.1705 17.3748 
907 1 45.5974 38.5796 19.0516 
874 1 34.8871 54.8249 16.2897 
869 1 64.2461 50.4411 21.349 
844 1 48.516 61.2886 19.2687 
837 1 38.1818 42.404 18.1566 
825 1 44.5936 40.2248 15.5159 
96 1 36.4071 63.6756 19.3342 
764 1 60.3194 52.5389 21.6275 
734 1 40.8097 48.162 16.8151 
733 1 36.0791 36.2673 20.162 
713 1 45.9235 53.4994 18.8721 
707 1 55.5651 62.8219 20.8883 
658 1 54.5618 47.7528 16.5088 
638 1 34.6958 63.2158 15.2014 
608 1 39.2018 63.2018 14.492 
600 1 60.5598 39.009 16.5398 
597 1 51.8374 48.3707 18.9977 
590 1 64.7036 38.2586 17.656 
582 1 56.7961 43.3082 14.2605 
572 1 49.8469 49.4051 14.3933 
571 1 47.666 64.767 21.1326 
544 1 34.8836 35.6702 13.5091 
539 1 40.1822 50.9114 19.1 
499 1 56.7807 64.4545 15.5127 
492 1 45.2016 56.5298 17.0973 
450 1 61.2776 62.3708 16.5006 
449 1 41.5913 63.7882 17.2483 
419 1 60.7536 42.3902 21.1469 
404 1 37.1904 32.7802 16.5984 
392 1 33.1192 44.8876 18.5141 
371 1 35.0179 54.9985 19.6934 
359 1 44.1604 34.9208 16.0585 
348 1 49.104 40.1539 20.068 
344 1 38.3833 59.7068 20.7163 
321 1 63.4698 47.3545 18.2017 
317 1 41.5662 35.0486 19.8535 
315 1 49.0105 36.0843 17.0489 
253 1 60.4166 54.0419 16.7343 
199 1 52.0678 42.0021 18.302 
178 1 45.1885 50.2276 20.1262 
162 1 41.124 43.3551 16.378 
127 1 55.0186 33.2739 16.8387 
123 1 40.38 58.6865 14.2133 
121 1 51.5456 56.1509 20.0836 
104 1 52.8783 40.7121 13.1469 
541 1 59.2079 64.5785 23.6899 
16 1 45.0076 47.5197 31.0932 
22 1 37.9353 49.4375 31.6766 
31 1 58.9912 39.2449 29.8069 
33 1 33.1498 36.4629 28.7779 
43 1 44.8589 57.3044 29.2773 
57 1 55.723 34.7048 32.8994 
85 1 51.4095 51.5363 33.8419 
958 1 48.8971 64.6152 38.3719 
106 1 49.2056 40.9447 35.7735 
134 1 59.8831 57.163 34.7825 
153 1 40.9121 61.7551 32.9043 
157 1 45.3473 39.378 32.892 
175 1 49.9955 64.6785 33.8602 
181 1 63.6923 52.8149 36.8427 
209 1 32.8161 51.5118 33.4673 
222 1 61.9472 47.1778 30.2529 
235 1 35.7242 44.4982 32.3173 
245 1 53.5924 40.1524 33.8529 
266 1 33.5737 46.133 28.7237 
274 1 36.6334 52.1136 28.8493 
276 1 37.7285 59.8135 31.2168 
286 1 55.2442 60.4967 31.5327 
294 1 63.0075 53.2309 28.6573 
311 1 52.9699 46.1961 28.9815 
516 1 54.3881 60.5594 37.8507 
356 1 44.4508 61.4067 29.1408 
164 1 48.7192 61.5117 27.2573 
385 1 51.3818 57.6395 33.6893 
420 1 40.4797 37.5224 34.8316 
428 1 55.7417 43.6381 31.3778 
433 1 43.0398 53.5911 35.0214 
437 1 57.4371 52.9436 31.1424 
452 1 58.3383 45.973 32.9805 
463 1 62.5189 56.6816 32.3272 
493 1 63.2691 61.7151 33.6926 
495 1 50.6769 63.8271 30.8379 
506 1 60.4931 42.5046 35.4955 
596 1 34.3729 56.0752 32.2929 
655 1 52.2701 55.928 30.6986 
700 1 62.3639 38.2107 33.8327 
745 1 48.4542 49.599 31.4697 
799 1 48.5292 54.2814 34.6698 
851 1 37.7334 61.5385 36.5358 
517 1 51.067 48.9347 39.0198 
903 1 48.9186 36.7168 30.6655 
914 1 59.2072 59.7738 29.4822 
922 1 46.3132 59.7176 35.8729 
931 1 42.7175 48.6123 33.9407 
950 1 36.3159 39.851 30.9173 
982 1 64.5165 64.6264 29.7364 
997 1 41.3157 39.8748 31.5801 
40 1 56.6543 35.5268 26.9847 
47 1 55.6818 57.5906 27.4676 
59 1 58.0877 43.7834 28.8804 
910 1 39.351 48.2362 26.3542 
65 1 33.3911 37.1795 39.1517 
845 1 57.2063 50.1834 28.2804 
826 1 48.7711 42.9536 28.4387 
93 1 42.609 55.5549 26.9564 
781 1 50.5353 34.7295 26.4844 
860 1 59.9048 33.2326 38.0607 
424 1 42.3226 46.5 28.4856 
724 1 35.1871 62.5477 28.2638 
380 1 33.4399 44.5615 36.0648 
510 1 42.1588 41.3153 28.2401 
657 1 42.2896 34.89 26.7474 
521 1 50.2369 50.904 27.7891 
573 1 49.9585 57.943 28.2863 
579 1 62.3021 58.6037 28.6452 
11 1 35.5193 47.3528 38.6616 
26 1 62.3325 60.464 37.8639 
508 1 -0.983567 44.4916 37.9546 
28 1 49.1521 33.7063 36.8706 
271 1 60.2856 33.3131 30.7292 
125 1 58.4458 49.0593 36.107 
228 1 45.0547 38.6492 37.7124 
261 1 42.0114 45.2243 36.9785 
275 1 37.038 37.4912 37.8512 
298 1 54.977 63.7433 36.3684 
360 1 64.395 39.078 36.7878 
430 1 54.3001 40.0767 37.4805 
441 1 56.264 56.9734 36.3421 
453 1 55.1038 43.6969 36.2656 
485 1 44.1062 61.0695 38.9542 
621 1 54.3419 50.0283 36.5956 
843 1 54.2698 33.1491 37.7626 
562 1 37.0797 57.3663 36.4322 
601 1 34.3152 53.151 38.347 
599 1 43.0462 49.9595 38.3737 
564 1 47.6367 45.9113 35.647 
15 1 -0.0161446 46.8402 34.2737 
605 1 59.9639 38.7533 38.9875 
48 1 49.2075 38.0656 26.6774 
981 1 57.402 48.5619 42.1436 
363 1 64.6259 64.6072 50.4456 
898 1 40.402 44.0714 40.2597 
887 1 54.3724 48.5477 40.4092 
73 1 49.3293 53.6931 42.1459 
87 1 38.7329 64.358 42.8136 
92 1 37.6601 53.0264 39.8757 
99 1 52.8055 59.4853 42.7439 
113 1 46.3878 49.6047 41.7673 
866 1 59.2707 37.4685 42.5969 
136 1 49.5324 42.0627 40.8934 
52 1 39.3462 36.9809 45.0112 
820 1 60.042 51.744 41.2814 
247 1 37.5683 34.6111 42.1272 
252 1 45.082 41.2579 40.301 
810 1 33.6059 44.7989 40.8287 
775 1 57.2323 41.9977 43.988 
279 1 60.7607 58.5745 44.0297 
722 1 37.7793 52.0953 43.2866 
316 1 57.0631 56.1652 43.9179 
711 1 47.7436 36.24 43.7188 
383 1 42.0454 36.3374 40.1186 
674 1 47.4093 60.4768 40.3288 
432 1 49.0945 41.5819 44.3197 
639 1 40.6623 60.001 40.1815 
627 1 60.0607 46.0972 40.9496 
470 1 57.2162 64.0396 39.9921 
613 1 42.0381 44.3261 43.1573 
487 1 63.4469 58.8938 40.8717 
75 1 43.8843 58.0481 44.8059 
661 1 65.1779 48.0178 43.8986 
7 1 46.8464 56.3901 49.8923 
979 1 58.4236 38.5448 47.0752 
973 1 60.4199 38.8914 50.5502 
966 1 40.1143 60.375 44.5282 
959 1 48.2002 42.3783 49.6215 
943 1 46.434 36.8711 51.4508 
939 1 52.9678 41.1443 44.5908 
928 1 38.1708 56.4178 49.3136 
925 1 54.1849 35.0518 46.9464 
906 1 35.5213 58.5198 45.2239 
904 1 47.1532 37.6985 48.1333 
20 1 64.4219 51.0803 51.2751 
834 1 63.8803 35.3415 44.3747 
822 1 39.7626 41.9814 50.552 
811 1 59.5642 63.0674 44.0708 
800 1 54.1416 62.9381 46.8203 
783 1 44.1497 47.1772 48.7423 
769 1 57.6807 49.7723 49.2567 
739 1 57.3863 44.3816 47.6226 