ITEM: TIMESTEP
200000
ITEM: NUMBER OF ATOMS
1000
ITEM: BOX BOUNDS pp pp ff
5.0000000000000003e-02 6.5378699999999995e+01
2.9999999999999999e-02 6.5358699999999999e+01
0.0000000000000000e+00 6.5338700000000003e+01
ITEM: ATOMS id type xu yu zu 
586 1 11.0059 14.498 11.9943 
72 1 18.8399 27.1007 12.1315 
585 1 12.4247 23.805 12.4531 
984 1 30.0877 3.9652 23.4492 
107 1 1.69759 6.60824 24.0304 
961 1 20.4009 5.48662 23.1308 
131 1 11.7264 20.5365 24.5921 
135 1 17.9986 25.4267 22.2961 
915 1 14.0959 1.16909 21.5159 
883 1 7.99502 18.9568 23.515 
180 1 1.60371 19.4268 23.6586 
238 1 1.93994 10.3838 25.4655 
110 1 28.7191 24.4918 22.6974 
248 1 10.6609 9.91826 22.6923 
871 1 2.61043 9.94246 21.6128 
264 1 20.8351 14.2796 21.4277 
196 1 32.4619 28.8132 17.0432 
828 1 20.2811 17.5639 24.011 
790 1 21.5314 29.8541 22.9564 
743 1 6.77129 1.81334 22.9704 
351 1 29.277 9.54629 22.3983 
372 1 1.83563 25.8912 22.5478 
397 1 11.174 30.8692 24.6104 
732 1 15.1875 6.00584 23.6376 
704 1 22.9376 10.4122 24.9363 
454 1 31.358 20.728 25.4395 
466 1 30.196 30.7085 22.9651 
476 1 23.7821 20.0185 21.6575 
489 1 25.2546 15.2188 25.588 
679 1 15.8264 15.3495 23.2109 
656 1 6.4938 5.57791 23.3097 
117 1 22.7815 13.8322 13.9944 
118 1 31.8736 20.3385 13.9594 
620 1 31.1412 9.60449 25.3517 
646 1 6.7469 25.3896 21.0801 
648 1 31.409 26.1407 21.4226 
143 1 16.7677 22.5511 24.9487 
996 1 15.3965 22.0622 17.6734 
941 1 18.3916 3.76989 14.3125 
933 1 17.9761 12.3212 18.0623 
918 1 17.6953 15.6911 14.6718 
912 1 26.9357 5.78845 14.4368 
895 1 4.96686 22.4978 18.7474 
880 1 25.0745 26.5788 14.3911 
864 1 32.241 13.3371 22.1904 
835 1 15.3594 0.933216 15.8714 
853 1 14.1003 18.0378 25.9594 
778 1 22.3198 6.83129 17.9752 
750 1 10.2503 21.5693 19.1654 
720 1 4.69249 14.9422 21.2149 
650 1 13.0152 17.9943 15.6072 
614 1 28.4988 3.96659 19.4328 
611 1 4.79874 28.3157 17.3028 
609 1 16.0619 8.47735 13.9092 
602 1 26.7501 12.3078 20.1587 
833 1 3.3739 14.8169 25.4459 
333 1 25.8063 22.7663 25.8651 
581 1 14.6781 14.2263 18.9574 
580 1 27.4295 31.2915 17.5683 
542 1 7.7029 9.8599 15.2665 
533 1 24.3261 24.6582 18.5641 
520 1 11.8468 0.10527 16.5838 
502 1 22.2117 21.1064 15.7835 
438 1 12.4273 31.1949 16.5971 
435 1 2.54005 23.6472 15.9418 
426 1 19.8864 31.7959 19.6309 
408 1 31.0029 6.32734 14.2341 
381 1 9.23457 5.88447 13.9126 
368 1 4.99828 12.7349 16.2314 
361 1 24.8163 18.034 13.2895 
339 1 14.5469 29.2323 19.2917 
325 1 6.07751 2.93489 16.8215 
305 1 13.2672 25.8161 17.3703 
243 1 4.85702 19.1523 16.1389 
173 1 12.7829 12.0706 25.9459 
200 1 14.7272 7.70661 20.6328 
145 1 7.80903 15.1828 19.4132 
188 1 27.7812 14.6394 16.6187 
587 1 4.84103 23.5356 24.8189 
977 1 7.83619 13.9765 25.8509 
4 1 30.5118 3.08196 31.0115 
5 1 4.34137 25.35 30.0213 
8 1 2.17552 28.4561 33.6773 
17 1 27.1074 12.1773 31.5953 
29 1 19.2689 15.4123 30.6816 
50 1 11.4354 15.707 30.5443 
78 1 5.46677 27.9705 36.6233 
80 1 19.1964 26.1103 32.2385 
83 1 8.43222 23.4692 32.2278 
120 1 28.5925 26.3811 33.999 
128 1 22.9055 31.5019 31.869 
211 1 8.55069 12.5129 32.044 
234 1 10.7782 7.83416 33.9905 
249 1 16.7525 9.85394 36.1562 
67 1 65.5738 3.69958 35.5284 
303 1 14.4279 23.0683 34.6684 
312 1 9.64189 19.5573 32.6667 
364 1 10.5081 30.4766 31.567 
379 1 4.82054 29.8969 28.9896 
440 1 20.2751 5.29613 34.8416 
442 1 30.7673 32.4523 35.9781 
472 1 20.9944 0.572654 32.1904 
474 1 24.6967 20.9401 34.923 
478 1 27.5063 9.17671 28.5296 
484 1 25.4483 11.3452 36.0457 
530 1 20.1722 20.7807 30.4564 
543 1 26.6356 17.7174 35.6916 
550 1 15.9131 18.5877 35.3094 
552 1 18.7153 30.505 34.3674 
553 1 9.90905 9.69794 28.8539 
563 1 16.7325 1.15658 29.2752 
606 1 17.3491 9.36122 32.7232 
615 1 29.2331 16.2156 31.8994 
665 1 6.90219 10.5312 36.5808 
671 1 2.59442 7.91884 31.5286 
678 1 10.9016 0.301284 31.8176 
691 1 20.8253 7.10726 29.5358 
718 1 13.4577 3.05376 34.9884 
725 1 28.4188 27.0276 29.984 
759 1 23.5031 27.4302 35.4188 
765 1 25.5784 5.94838 35.4692 
802 1 3.98604 2.46621 31.3605 
807 1 11.8303 24.2459 30.0006 
809 1 2.80124 17.617 31.9534 
831 1 26.4399 20.3304 29.3973 
916 1 15.2489 14.5799 30.5762 
991 1 4.14248 12.0206 34.2501 
39 1 15.9903 29.9938 27.9515 
115 1 22.5491 0.439719 26.2624 
108 1 32.1487 18.6815 30.4183 
985 1 2.9741 30.4587 38.9232 
970 1 23.2478 30.5142 27.5685 
445 1 26.8066 2.73496 27.6422 
738 1 32.5356 0.214264 29.6383 
255 1 17.0417 6.92105 27.5325 
280 1 12.8806 1.86515 26.7263 
568 1 27.7337 30.7924 26.3914 
293 1 8.54186 4.47396 27.9674 
971 1 32.4667 24.1683 29.5973 
719 1 65.2511 19.8274 38.3548 
410 1 12.2987 25.3757 26.3586 
653 1 30.2484 4.00282 37.1166 
654 1 32.1341 25.8311 37.9575 
500 1 20.5817 12.1893 27.7399 
546 1 8.4737 27.8554 27.3241 
812 1 32.5029 17.9564 35.1087 
141 1 8.35267 30.44 36.7037 
990 1 28.6038 23.6069 38.3607 
174 1 14.1363 28.3854 37.4951 
578 1 0.589851 9.51253 36.7634 
197 1 20.7015 13.1527 36.8265 
937 1 17.3631 23.4049 38.1066 
340 1 5.8623 21.2263 36.3786 
415 1 17.0134 18.3119 38.8699 
926 1 10.6415 1.80245 37.7944 
477 1 6.71899 17.4563 36.8855 
523 1 20.3341 17.3131 36.5402 
876 1 22.312 1.47066 36.3514 
875 1 12.4238 14.0241 38.307 
854 1 6.25811 5.40565 36.9981 
297 1 65.5164 7.36909 27.3212 
170 1 9.23685 32.2441 28.5638 
570 1 33.1503 14.1387 29.3201 
995 1 16.3608 2.54634 38.871 
729 1 15.8815 30.8965 38.9169 
182 1 20.6372 25.143 25.8629 
549 1 28.9639 31.5102 40.0943 
37 1 11.0709 9.45877 39.9892 
974 1 9.92385 21.8636 40.3146 
119 1 19.7931 12.0461 42.0403 
23 1 9.31679 22.9457 44.3814 
165 1 1.94064 25.885 39.8448 
167 1 11.1881 8.24497 44.8873 
940 1 19.971 8.45931 40.8578 
934 1 17.176 27.1972 41.9784 
257 1 30.2338 18.9586 42.4824 
273 1 2.6407 15.5292 40.1895 
309 1 2.09017 1.8343 44.2896 
334 1 9.88585 3.10374 43.5962 
927 1 14.4044 11.4311 41.2266 
345 1 4.05519 13.9777 44.7722 
369 1 25.8183 11.2242 44.485 
391 1 8.42371 30.5173 44.2398 
900 1 2.13073 21.5388 42.4676 
447 1 31.1932 14.4684 40.7359 
456 1 6.23649 27.8905 42.0826 
888 1 25.4958 9.32067 39.5792 
522 1 9.89545 15.4606 42.2293 
847 1 17.3479 3.34849 42.634 
524 1 21.5107 22.0012 43.056 
824 1 24.2539 16.5246 40.7136 
551 1 13.887 20.9856 43.6594 
567 1 24.2423 25.5527 40.1718 
793 1 9.3786 4.73499 40.9371 
55 1 16.0974 6.08512 48.4466 
780 1 13.1748 23.6272 40.6987 
770 1 25.1245 2.05564 42.4876 
682 1 5.14899 7.4117 41.1122 
690 1 27.014 25.8577 44.5555 
68 1 29.5075 1.25779 40.0687 
856 1 25.6466 31.758 48.3938 
30 1 25.3175 13.2325 48.0348 
988 1 2.03459 8.56021 46.3702 
54 1 2.84039 14.174 49.8988 
968 1 23.7257 28.556 43.9539 
965 1 11.5743 27.634 47.2648 
144 1 14.9656 14.4653 44.8993 
949 1 14.7262 21.3159 51.4845 
2 1 20.8579 65.5204 51.8725 
929 1 8.67615 13.2486 47.4541 
919 1 20.0294 28.3729 44.6589 
886 1 6.94596 18.3379 45.3808 
885 1 15.6648 15.675 50.8577 
881 1 19.9823 2.82054 46.5399 
857 1 20.9998 19.1766 49.5618 
993 1 0.492936 31.0328 46.887 
808 1 24.0222 5.69019 45.5699 
757 1 6.25857 32.5579 47.504 
645 1 25.4037 20.1327 47.9927 
624 1 26.844 4.49132 50.7477 
630 1 0.0134076 6.68945 42.859 
603 1 3.30565 2.54315 48.3059 
593 1 28.4609 6.45758 44.8758 
536 1 20.653 30.9411 50.5858 
58 1 5.06794 22.997 50.5767 
526 1 19.4349 5.07852 49.6748 
486 1 29.6716 20.9703 46.183 
480 1 22.2329 15.1253 44.0401 
462 1 19.7857 13.413 48.0494 
105 1 26.0412 20.1366 43.5617 
386 1 7.53846 27.7463 51.0337 
370 1 6.59439 5.63379 47.2995 
358 1 21.8808 24.9316 49.5553 
357 1 30.2958 28.3788 46.3373 
327 1 25.7876 16.2769 49.7888 
307 1 16.2091 2.57886 52.218 
259 1 11.6082 10.1909 51.9067 
221 1 31.439 6.88496 47.4398 
195 1 15.6606 27.6883 48.0339 
183 1 11.3707 1.94347 48.637 
150 1 16.307 19.7377 46.1516 
604 1 28.1567 30.2363 52.6548 
6 1 1.78076 1.34369 38.501 
855 1 3.9671 6.9949 54.0331 
12 1 22.6362 12.8465 53.9345 
963 1 27.1868 1.99934 53.2111 
942 1 29.8811 20.6983 52.9245 
461 1 7.65631 20.2262 52.8026 
531 1 27.106 9.6547 52.1725 
554 1 19.1089 54.5523 12.2374 
706 1 32.1167 42.5463 11.9372 
924 1 17.3435 58.1777 11.5587 
870 1 13.2925 37.927 13.1074 
14 1 25.7138 41.6333 22.3871 
945 1 15.1578 43.2084 21.5821 
25 1 0.133732 61.2365 22.015 
34 1 8.76321 41.0453 22.8069 
920 1 1.23666 55.7263 25.5059 
86 1 26.7988 54.1911 23.007 
88 1 9.56465 48.8121 24.8024 
878 1 26.6333 50.1459 23.3457 
152 1 17.9779 50.3754 21.0832 
865 1 19.7391 55.5587 23.4797 
205 1 2.41525 39.7884 24.7868 
232 1 17.9907 46.404 22.3095 
863 1 30.1434 41.7268 21.4528 
256 1 22.3125 42.959 24.127 
693 1 31.0708 46.1208 24.3677 
300 1 6.11847 56.3573 19.9229 
852 1 11.9715 60.9987 25.6071 
354 1 8.01489 34.4553 22.3534 
838 1 26.078 58.4086 24.5591 
399 1 10.7487 58.928 22.1831 
774 1 5.23483 58.7695 26.2902 
816 1 20.0643 62.178 23.5319 
777 1 30.7424 38.5494 24.7272 
537 1 1.78498 35.4962 24.6787 
557 1 4.78737 52.8842 24.9707 
595 1 10.9867 49.9082 21.3367 
628 1 3.70168 62.3749 23.845 
659 1 30.2227 62.0475 22.557 
754 1 15.6183 34.3999 23.4012 
749 1 3.78604 45.2344 25.5156 
748 1 23.3221 50.1576 25.0154 
677 1 16.8105 62.3548 25.8029 
687 1 13.7141 49.519 24.7037 
712 1 19.226 35.0585 22.2284 
9 1 6.31818 58.8174 13.0064 
989 1 26.1821 63.9729 20.0992 
972 1 30.5587 60.679 17.9387 
962 1 30.4261 63.5036 14.6211 
716 1 23.199 37.8835 25.5598 
947 1 27.942 38.364 16.26 
930 1 21.291 41.9214 18.3696 
412 1 0.90204 49.204 24.2738 
902 1 21.4267 53.3953 14.9389 
889 1 21.7752 64.7674 15.5762 
38 1 29.493 49.4972 19.1841 
848 1 7.38223 45.3018 16.4258 
827 1 8.67455 35.1087 18.6807 
814 1 27.0325 54.8178 16.4995 
789 1 18.4585 47.9018 13.3268 
709 1 20.3189 34.0973 15.5272 
285 1 24.4559 62.1071 25.5013 
702 1 17.989 47.4501 17.8642 
701 1 29.4199 33.7924 15.0646 
696 1 6.88989 49.9381 16.3162 
689 1 19.1412 42.6201 14.5017 
670 1 12.5475 36.8598 22.0375 
616 1 14.7294 62.5718 20.183 
584 1 22.8214 54.3759 19.0249 
213 1 4.81744 -1.53265 18.6387 
527 1 27.3205 51.3221 15.3338 
509 1 2.03172 45.6391 21.6117 
504 1 9.24884 33.4418 13.7177 
468 1 25.1731 46.377 16.1667 
467 1 1.33945 34.4169 16.3805 
448 1 23.2919 33.865 18.1872 
436 1 5.01112 42.8361 20.9075 
44 1 27.5758 34.782 20.2069 
402 1 1.35005 58.6596 14.225 
387 1 25.0579 60.1265 16.0109 
292 1 3.76267 37.8252 13.7836 
290 1 22.2444 61.6956 19.6606 
223 1 19.0364 55.9591 17.3219 
220 1 2.46459 52.9957 20.2934 
216 1 28.9788 43.5341 15.6237 
176 1 8.85272 58.3543 18.2654 
13 1 11.8113 58.6957 15.8457 
163 1 11.0679 41.6376 16.8272 
146 1 5.86007 37.4925 19.2987 
112 1 15.0224 54.4927 20.0787 
100 1 16.1415 41.2235 17.5804 
79 1 11.3641 50.1608 16.5134 
70 1 10.2554 47.4416 18.7929 
952 1 2.36024 44.5716 13.2289 
547 1 18.787 58.333 37.0144 
56 1 17.7843 37.9548 30.9831 
62 1 20.7115 39.6421 35.2113 
109 1 5.76929 46.3785 33.8007 
122 1 13.0136 36.2769 34.2768 
138 1 4.89273 56.8123 32.7851 
91 1 19.6199 38.2408 38.8609 
190 1 9.29735 47.7446 31.8837 
198 1 2.22317 34.937 34.1796 
230 1 10.7765 39.7815 31.6151 
262 1 15.2259 38.0571 36.7564 
263 1 32.2537 39.446 33.4368 
265 1 10.3554 54.7748 30.0326 
289 1 10.5697 40.6304 36.0844 
331 1 25.5507 34.5677 34.65 
406 1 27.8632 40.4396 30.8456 
422 1 14.6291 51.0197 32.155 
427 1 1.58187 45.135 28.6577 
457 1 15.5193 63.122 34.9787 
459 1 26.7399 46.8229 34.8089 
460 1 5.9267 35.9944 31.2766 
418 1 24.9802 62.9429 38.0625 
488 1 1.64211 36.6457 29.6232 
511 1 18.2412 45.7236 35.8329 
561 1 31.2787 53.4881 31.4004 
607 1 29.0171 34.4001 27.6467 
625 1 24.3081 62.7542 31.251 
635 1 4.77537 54.1788 29.1881 
637 1 16.0944 58.3612 29.9648 
649 1 3.32248 64.9725 35.3876 
662 1 9.05263 43.6575 31.2304 
675 1 11.2186 55.3676 35.1249 
685 1 23.3268 57.646 33.466 
751 1 24.8204 41.7153 31.7135 
755 1 5.30664 51.3196 35.8035 
756 1 22.1215 54.0359 32.3494 
763 1 21.497 50.2302 29.7974 
773 1 16.4846 33.1041 33.2224 
779 1 16.8899 55.5566 33.3809 
819 1 18.3391 45.3343 31.571 
830 1 1.82992 40.4151 31.0775 
842 1 6.38842 60.9606 34.0153 
891 1 26.6675 58.5776 32.5418 
897 1 25.162 40.048 35.4702 
908 1 28.565 61.3419 35.0354 
948 1 25.8349 52.9837 32.544 
953 1 26.4056 45.4067 29.2249 
957 1 16.0235 59.3357 34.6381 
960 1 19.6232 40.8013 28.201 
1000 1 7.80398 62.6933 30.1495 
482 1 0.432513 49.7792 31.3801 
51 1 29.5962 48.054 26.6609 
148 1 9.12069 57.8073 27.739 
172 1 9.49631 41.9019 27.557 
251 1 15.9918 55.1357 26.7488 
346 1 10.2708 59.2374 37.1106 
389 1 12.2903 45.8537 29.0254 
515 1 20.2042 47.4727 27.4252 
525 1 30.8264 54.16 27.1812 
666 1 13.7934 38.2857 26.354 
475 1 4.26185 44.9379 36.8552 
767 1 19.7942 35.3262 26.3842 
667 1 17.104 52.0513 28.0311 
672 1 27.0429 56.8762 28.5599 
322 1 32.3734 59.5373 30.7778 
728 1 19.9432 63.445 27.6521 
589 1 25.0386 54.2831 37.4603 
18 1 32.9379 41.714 27.5731 
998 1 5.10445 37.9168 37.1464 
350 1 3.0187 -1.15829 27.6189 
149 1 15.7128 51.0003 36.9989 
169 1 0.813616 56.0856 38.2439 
911 1 4.72415 57.8652 38.1865 
591 1 28.5747 54.8633 37.5517 
306 1 9.80591 45.0021 37.7043 
862 1 23.138 34.0946 38.0816 
861 1 32.3861 62.4069 37.56 
829 1 28.5395 50.2781 36.396 
308 1 13.0527 63.64 38.5744 
142 1 21.8279 46.4017 39.1569 
723 1 5.68134 34.9206 26.2933 
336 1 17.1646 43.0173 26.6616 
409 1 31.8665 61.6596 45.9698 
89 1 31.0733 58.4152 39.5468 
992 1 14.9976 53.6078 40.6964 
975 1 3.66645 49.9393 41.5607 
147 1 10.8313 36.0508 41.9315 
935 1 26.3945 39.6903 41.2958 
901 1 20.3892 48.512 43.6107 
187 1 9.91696 54.0282 39.7569 
203 1 1.88238 42.1443 41.8233 
204 1 5.39166 60.362 43.1325 
867 1 25.0154 48.9619 39.9487 
239 1 13.841 39.7406 39.9994 
240 1 19.2221 54.6035 42.265 
268 1 8.04246 43.4006 43.8252 
64 1 28.3559 64.5988 44.9631 
296 1 30.7761 47.4203 43.7116 
788 1 13.4946 63.9461 42.4124 
577 1 16.1793 47.4067 39.8916 
324 1 26.3666 52.3366 42.7163 
332 1 30.6101 33.9348 41.8375 
565 1 1.51704 56.3387 42.2276 
353 1 31.7344 53.1775 41.9501 
365 1 18.0554 43.5288 43.0181 
390 1 31.1842 61.8405 41.9232 
393 1 19.864 62.9983 41.394 
49 1 22.6207 53.6548 46.2187 
560 1 7.73785 47.4101 41.3079 
63 1 10.1706 51.2374 46.1345 
558 1 21.0022 59.2959 40.1186 
505 1 5.77289 36.3389 42.1057 
1 1 28.9535 40.8542 44.1637 
994 1 25.8812 39.0591 45.0935 
969 1 24.0692 45.8514 52.4756 
955 1 12.1896 42.938 44.6876 
923 1 27.8293 35.4067 48.6317 
892 1 3.23858 38.8559 50.2674 
27 1 25.6202 32.9702 42.6282 
980 1 1.47134 -1.50829 45.9906 
815 1 18.3754 61.4356 45.0916 
804 1 10.8902 37.7373 51.5361 
794 1 14.4239 47.6305 52.0389 
786 1 11.3157 64.8849 45.7133 
782 1 30.1219 57.3994 47.1486 
744 1 9.12994 38.5024 45.3421 
726 1 1.01382 56.5517 46.385 
721 1 12.3077 33.2888 44.6161 
705 1 2.42042 33.7193 48.3634 
688 1 29.0546 48.1491 51.0565 
219 1 11.5242 32.2258 39.4906 
636 1 14.1226 57.7361 44.5399 
810 1 32.3899 44.6101 39.7551 
619 1 22.6971 62.4703 45.6709 
612 1 29.1292 50.938 47.745 
588 1 32.0327 38.0427 49.5094 
583 1 2.69269 43.7681 48.7912 
556 1 20.0307 45.5793 47.8701 
519 1 4.22504 49.2797 46.6416 
512 1 8.0541 56.2329 43.7675 
469 1 1.15466 59.3932 49.446 
465 1 20.9688 38.0512 51.2849 
455 1 19.2928 39.6585 46.1852 
414 1 23.0038 43.6712 49.2209 
661 1 67.2062 47.6462 44.5679 
375 1 27.5074 47.2349 47.3327 
367 1 9.50978 43.762 48.7812 
337 1 25.9464 61.0246 49.3779 
310 1 5.06704 52.4802 52.0141 
304 1 25.7011 57.1758 44.5787 
282 1 15.3478 49.3164 45.7027 
278 1 10.4045 61.4428 49.4995 
260 1 9.06203 60.4329 45.0214 
229 1 16.6287 37.4165 50.1825 
401 1 27.9111 42.9895 39.3263 
151 1 18.6138 58.0204 48.6056 
137 1 11.9734 55.6709 47.4125 
41 1 31.9679 41.7894 48.3302 
103 1 12.7879 51.3991 49.1384 
97 1 19.7774 53.814 51.4149 
84 1 20.1216 36.2232 44.5565 
363 1 65.9451 63.8151 51.4865 
443 1 6.61231 61.8468 39.5335 
111 1 22.8047 56.728 53.1717 
868 1 8.24716 56.1063 52.5101 
652 1 30.2509 57.2665 52.4911 
622 1 5.49384 45.425 52.3445 
207 1 8.71998 64.7669 53.5078 
446 1 39.6458 23.4594 11.936 
185 1 34.9861 6.59416 12.5914 
124 1 57.1305 4.95585 12.4922 
326 1 43.3998 7.28287 12.7524 
53 1 63.6914 27.4298 22.6206 
126 1 62.6201 20.8277 25.5349 
160 1 43.4686 14.8721 24.3184 
194 1 48.7498 18.7449 23.2937 
967 1 44.2499 27.6783 23.4987 
82 1 48.1765 6.10017 13.3677 
231 1 33.0863 7.60284 22.0545 
116 1 54.2816 22.8831 17.9139 
241 1 34.0012 19.4821 21.4419 
986 1 35.3091 18.9817 25.9118 
787 1 33.5165 18.1183 18.15 
821 1 49.0566 22.7281 23.765 
752 1 55.5069 2.76595 24.2 
314 1 48.5925 13.6696 24.657 
328 1 57.2618 6.67178 21.5349 
736 1 37.7844 24.8326 23.0168 
347 1 57.1729 31.957 23.6541 
717 1 51.9066 29.3299 22.7536 
362 1 59.8007 13.9375 23.8685 
411 1 48.7216 5.45415 22.5099 
434 1 38.9939 21.3797 25.9313 
481 1 63.9119 3.61831 25.5469 
491 1 41.6963 2.89816 24.6933 
501 1 56.0685 23.8256 22.259 
503 1 56.6836 18.1571 24.4737 
518 1 46.0389 8.89999 23.9597 
102 1 64.9049 6.62766 19.8189 
669 1 48.1047 27.5866 23.7533 
21 1 35.5028 13.8853 15.7559 
954 1 34.2098 2.70921 17.532 
951 1 64.254 8.32028 12.9182 
938 1 55.1445 30.5184 15.3865 
884 1 63.8057 4.90124 15.5345 
882 1 51.9177 20.1251 21.5598 
877 1 52.3209 15.2025 16.3249 
644 1 48.8237 65.8048 23.6278 
841 1 38.3802 5.70722 19.9818 
801 1 62.7634 13.2366 15.6097 
766 1 54.3327 9.20298 17.8979 
761 1 49.1046 22.9964 14.4872 
730 1 47.7218 31.4791 19.2246 
727 1 40.2175 16.4377 21.0791 
714 1 38.7466 21.977 19.3119 
708 1 35.4018 30.3388 19.2143 
660 1 55.3163 31.946 19.5311 
647 1 59.7349 25.6925 18.2452 
629 1 62.7296 26.1586 13.1348 
626 1 59.4007 13.0594 18.7299 
598 1 64.2056 29.791 16.07 
594 1 40.5528 6.59744 23.099 
555 1 34.1307 23.5382 13.649 
490 1 48.3528 14.6657 17.1726 
483 1 53.1187 8.0264 21.8181 
697 1 34.9836 29.9757 25.5987 
416 1 41.6641 8.32352 16.6768 
413 1 60.9771 20.534 22.2342 
376 1 43.0264 30.1789 20.1033 
366 1 45.4759 21.3045 19.9684 
355 1 62.293 16.3561 17.7076 
343 1 43.6229 16.2275 15.6277 
133 1 45.6798 11.9862 19.0936 
318 1 65.4288 31.5396 20.0115 
291 1 59.0413 20.4401 12.9709 
288 1 38.7214 25.9585 15.7356 
284 1 51.0304 27.6584 14.8294 
250 1 54.1027 3.87831 17.373 
246 1 43.3828 27.7478 13.9536 
244 1 55.4906 14.4533 19.3714 
215 1 60.5349 0.865126 20.0026 
206 1 36.9117 12.1146 20.0519 
191 1 42.5639 21.0232 16.8198 
850 1 55.5465 25.9642 26.3903 
161 1 47.2817 3.16424 16.7728 
270 1 52.2386 9.94246 25.8995 
762 1 46.5289 2.23025 25.5174 
24 1 41.8107 5.36775 33.251 
35 1 60.0797 4.47856 29.6066 
60 1 40.1914 26.5343 37.9049 
71 1 54.7635 31.6128 30.0241 
944 1 40.5077 5.94449 26.7771 
177 1 63.9834 21.4135 30.0544 
839 1 36.3622 12.6743 27.1442 
283 1 40.1413 10.6486 28.1157 
301 1 64.6443 14.5875 33.3382 
319 1 38.2615 3.73301 31.575 
330 1 53.2791 26.6315 33.2698 
373 1 38.9294 17.6631 30.9096 
394 1 50.9697 6.21489 31.1741 
429 1 64.2256 25.0928 32.4679 
439 1 37.8463 22.1416 33.3601 
532 1 63.2375 29.564 32.5707 
538 1 36.198 0.469862 34.7986 
566 1 37.2348 30.1114 28.4378 
574 1 47.1105 31.9173 26.7533 
575 1 57.911 11.4501 29.7436 
631 1 33.9996 26.642 34.205 
641 1 46.1598 4.95525 33.7796 
668 1 59.8578 27.2589 35.6425 
686 1 57.7583 21.0338 32.177 
692 1 58.4709 25.2937 28.3972 
694 1 33.3691 6.02815 31.8302 
731 1 53.3411 15.4846 32.3276 
735 1 61.5597 6.30023 33.2826 
740 1 33.8542 10.1153 29.3226 
742 1 43.7443 12.4987 33.2895 
758 1 49.6634 19.6967 32.4501 
760 1 39.9982 10.1292 35.8253 
771 1 59.6877 17.0923 35.5496 
791 1 51.0383 12.063 33.3767 
795 1 53.6219 7.82767 34.5757 
405 1 54.8216 28.787 38.8482 
813 1 57.0231 31.9 34.3775 
817 1 46.5881 23.1101 32.5073 
818 1 39.7047 26.789 28.9772 
832 1 44.4906 12.6819 29.4055 
846 1 41.5017 19.9745 34.7645 
859 1 57.8394 3.71325 32.7022 
873 1 46.2571 4.3588 30.4863 
896 1 57.862 4.30905 36.2528 
899 1 36.8464 13.2525 33.9715 
905 1 49.5888 21.8179 27.9722 
964 1 56.9039 23.4924 35.3121 
983 1 43.9927 25.6395 36.0341 
202 1 53.7091 19.1719 28.5364 
806 1 48.1264 30.4456 38.6149 
224 1 59.7556 14.3793 28.9178 
497 1 40.237 3.31632 39.0432 
921 1 42.5269 19.3514 26.7238 
843 1 55.2612 32.1707 37.2744 
860 1 59.2253 32.4062 37.7209 
823 1 43.017 30.2517 29.2994 
302 1 51.3782 14.0281 27.3346 
784 1 54.3528 4.25553 27.8878 
958 1 49.8025 65.1693 37.6243 
338 1 45.8248 22.1487 28.4138 
737 1 63.5047 17.4175 28.4462 
352 1 47.787 9.66436 28.1761 
618 1 51.1756 27.9908 28.7066 
664 1 62.4897 28.1351 27.5709 
19 1 34.2162 11.2875 37.5572 
559 1 43.8957 14.4069 36.8292 
879 1 54.6722 18.217 35.0492 
192 1 44.0014 29.9939 38.9474 
76 1 50.2461 6.21679 36.4052 
890 1 38.9737 31.4968 33.4218 
159 1 61.4761 14.0076 36.6783 
212 1 35.4346 5.12235 37.776 
269 1 50.0519 10.1758 36.7787 
382 1 33.7474 20.0736 38.3553 
623 1 41.524 22.4726 37.3381 
396 1 59.9344 1.33556 35.3106 
458 1 49.0119 21.9697 37.7853 
473 1 34.2011 32.0002 36.9837 
683 1 47.6673 16.4773 36.9157 
271 1 60.9021 32.15 30.728 
673 1 43.5213 2.67998 36.0254 
643 1 57.6108 12.8372 38.1742 
642 1 52.1494 24.7065 37.2852 
175 1 49.3403 65.3218 32.9196 
792 1 63.2946 31.2315 39.1096 
236 1 57.1332 8.85795 26.8046 
956 1 40.515 15.9682 43.8183 
81 1 35.2448 10.564 44.2481 
69 1 39.1207 25.0384 42.1794 
893 1 37.1604 31.6657 49.5671 
95 1 36.5481 5.97667 42.1296 
101 1 48.9515 12.2835 43.3881 
681 1 59.6866 23.8363 39.5402 
166 1 62.2326 11.1945 39.8312 
189 1 47.9829 19.048 40.1549 
10 1 53.3805 18.9979 46.8574 
746 1 59.2099 9.32514 40.8296 
217 1 42.3522 31.2975 42.777 
741 1 55.9772 22.9201 41.6395 
295 1 33.7507 24.147 41.3747 
313 1 55.4584 18.9968 42.4446 
320 1 47.8373 23.0232 41.9382 
377 1 34.4401 31.8545 44.4754 
36 1 64.2874 19.9818 48.984 
699 1 58.4357 2.69742 42.5039 
114 1 58.1583 8.0864 46.9723 
423 1 46.4711 3.78132 43.4752 
431 1 44.1466 12.1281 40.5591 
684 1 61.1925 16.7797 42.6499 
617 1 41.323 0.694372 42.8473 
610 1 54.4544 12.0909 40.1173 
576 1 44.7714 8.70289 43.5167 
534 1 35.6463 19.5919 42.9205 
540 1 51.1847 5.02496 41.7315 
548 1 55.104 28.248 43.3146 
569 1 55.049 4.15173 43.5764 
3 1 34.1623 18.6909 49.1372 
999 1 62.1282 9.96629 49.6662 
978 1 62.0017 27.0274 45.0991 
913 1 38.8121 18.4295 45.0334 
909 1 57.8012 2.95412 51.466 
894 1 36.2943 7.65695 46.7235 
840 1 55.3357 31.1846 48.2625 
836 1 47.215 18.8017 47.9807 
803 1 52.3915 26.8133 46.046 
798 1 42.7269 23.2191 43.8888 
797 1 45.7326 9.07155 49.0944 
32 1 45.8544 26.5957 45.6478 
785 1 46.3942 16.8092 51.3217 
776 1 38.7668 2.48099 47.0643 
747 1 45.6352 24.8076 50.0535 
715 1 64.3171 11.0048 44.7346 
680 1 64.4904 23.4015 45.6305 
651 1 45.3618 21.156 51.8349 
139 1 61.976 23.6527 52.0814 
633 1 61.7628 2.57316 46.0749 
545 1 34.3664 27.3639 49.849 
46 1 50.4385 7.14051 47.7186 
140 1 38.6544 18.0745 50.5711 
464 1 48.7133 2.82559 49.8911 
444 1 50.7079 15.5511 46.2277 
417 1 42.7709 12.133 44.5577 
407 1 34.5415 24.4665 47.5776 
395 1 35.0121 1.4623 47.6023 
710 1 64.3861 2.0636 40.0653 
849 1 33.8719 8.8698 40.4862 
335 1 41.4827 13.6207 50.5546 
323 1 52.0004 11.7251 44.6227 
281 1 58.5417 16.0428 47.5586 
277 1 44.0089 31.7554 47.8983 
267 1 39.3881 25.4359 47.3403 
237 1 57.1794 19.9223 51.6395 
227 1 49.1914 28.4542 51.7788 
154 1 32.8019 11.6086 49.6521 
193 1 56.6744 26.9962 48.7166 
186 1 56.3225 14.8614 50.8133 
179 1 52.3434 23.3655 51.7516 
514 1 40.571 13.7369 39.4921 
130 1 48.4 12.8771 52.3095 
378 1 43.1887 31.3176 52.8494 
796 1 36.1693 13.613 53.0635 
640 1 35.9743 4.27808 53.094 
479 1 52.5173 9.97565 53.1435 
201 1 53.3807 2.84262 54.1883 
98 1 42.7226 2.53714 52.2514 
872 1 62.1259 34.3148 12.7389 
104 1 52.8916 40.7331 12.4704 
582 1 56.4063 42.6455 12.7022 
572 1 49.7969 48.8824 12.29 
544 1 33.6464 35.1686 12.6302 
976 1 47.6046 39.7238 23.3424 
42 1 39.8416 41.6613 23.1448 
917 1 55.0413 55.1533 25.3284 
910 1 38.971 48.5113 25.3268 
858 1 43.5953 52.0769 22.3196 
805 1 55.0006 38.5071 24.0042 
90 1 60.1091 39.6841 23.9552 
772 1 38.3969 36.1184 23.0504 
753 1 62.8344 35.7074 23.5717 
66 1 43.5776 61.3273 19.8905 
208 1 49.1895 42.969 23.2282 
210 1 47.2285 54.5264 24.9843 
218 1 60.603 49.9899 26.2199 
258 1 34.7754 39.0888 24.1278 
299 1 52.1194 47.3527 23.5861 
329 1 38.7934 45.097 23.7629 
342 1 37.9979 63.8144 23.9995 
398 1 34.6408 54.3669 24.5288 
77 1 64.0433 45.0922 14.6203 
425 1 61.8005 60.6892 22.4129 
676 1 42.6634 62.0024 25.3073 
494 1 50.1121 58.4334 23.7251 
768 1 64.1484 54.8187 13.0902 
168 1 -0.80688 60.4676 18.3674 
513 1 36.158 57.1847 22.5894 
592 1 54.9468 50.5206 21.5836 
528 1 48.7469 49.2659 22.5666 
535 1 34.7119 50.0073 22.4341 
541 1 58.1703 64.9361 24.1294 
451 1 57.4615 41.6976 25.1527 
45 1 58.3024 36.0642 21.0587 
987 1 57.517 44.3752 18.9555 
946 1 58.175 56.0116 19.7066 
936 1 54.6651 56.8283 17.6483 
907 1 46.0723 38.9873 18.8226 
874 1 33.9524 54.2331 14.0886 
869 1 63.539 51.0696 19.7212 
844 1 48.8437 61.3091 18.0472 
837 1 38.1363 41.831 18.3924 
825 1 45.3967 41.3834 15.4873 
96 1 36.294 63.2916 19.7124 
764 1 60.0486 52.6967 21.2161 
734 1 40.872 47.6442 15.5306 
733 1 36.1476 37.3288 19.9826 
713 1 46.9843 53.4764 17.9534 
707 1 54.1669 63.0911 20.0792 
658 1 55.6625 48.8684 14.0253 
638 1 35.2299 62.6536 15.1558 
608 1 39.5737 63.0846 13.2731 
600 1 60.2729 37.7089 15.0097 
597 1 51.9978 49.2849 17.6324 
590 1 63.5986 38.9593 18.8961 
421 1 32.4513 51.2679 15.8491 
121 1 51.3377 56.6009 19.859 
571 1 47.085 64.8404 19.9541 
242 1 34.1859 -0.962735 25.2087 
539 1 40.2414 49.9442 18.4562 
499 1 56.0042 64.0048 14.8755 
492 1 44.8751 56.5336 15.3947 
450 1 61.1854 63.4435 15.9524 
449 1 41.8973 64.1013 16.7221 
419 1 60.8112 42.5419 20.5615 
404 1 37.1402 33.7208 16.4691 
392 1 33.2006 45.6496 18.2867 
371 1 35.4899 54.3855 19.5832 
359 1 43.9737 35.9336 14.9381 
348 1 50.9975 40.2715 20.2582 
344 1 38.6952 60.6667 21.3076 
321 1 63.861 47.7824 18.3438 
317 1 41.0987 35.2905 19.1058 
315 1 48.6394 35.5924 17.6333 
253 1 59.9934 53.1345 14.7659 
199 1 51.5334 42.5503 15.8295 
178 1 45.3471 50.1178 19.6772 
162 1 40.8904 43.767 16.3407 
127 1 54.7795 34.1446 16.0945 
123 1 41.8639 58.3727 13.5676 
16 1 44.7549 46.255 30.8081 
22 1 37.2865 49.7643 33.3271 
31 1 58.6279 40.0708 30.1721 
33 1 33.4019 35.7082 29.4865 
43 1 44.4893 56.3868 28.5264 
57 1 54.97 35.0799 33.1993 
85 1 51.5026 52.5417 33.9602 
254 1 33.5907 33.1683 33.0986 
106 1 49.7187 41.8704 34.1023 
134 1 59.8635 54.9907 35.1869 
153 1 40.6615 63.0372 32.6178 
157 1 44.6454 38.9825 32.3218 
155 1 57.1755 63.5435 26.7829 
181 1 63.0903 52.7958 36.7447 
209 1 34.0925 51.6551 34.4832 
222 1 61.5889 46.8363 30.2893 
235 1 36.0275 43.8708 32.6627 
245 1 53.0315 39.1975 33.7582 
266 1 33.3433 47.1671 29.1553 
274 1 36.1743 52.6202 29.4391 
276 1 38.3195 59.4069 31.1045 
286 1 55.4193 61.1811 31.9746 
294 1 61.5027 52.8349 28.8332 
311 1 53.2634 46.9381 28.215 
516 1 53.4017 59.8333 38.4872 
356 1 42.4669 62.1638 29.3051 
164 1 48.881 62.4889 27.4378 
385 1 51.0302 57.4938 33.9363 
420 1 39.5534 38.7262 36.009 
428 1 54.7261 43.3327 31.2241 
433 1 42.9172 52.0757 34.2049 
437 1 58.0049 52.824 29.6767 
452 1 58.6247 45.9377 32.998 
463 1 62.2952 56.9598 32.4022 
493 1 63.3106 62.1749 32.8851 
495 1 51.7729 63.9389 30.4398 
506 1 60.0897 41.759 35.7646 
596 1 34.2734 56.046 32.072 
655 1 52.6292 54.8919 30.7785 
700 1 63.2588 39.0398 33.9591 
745 1 48.2872 48.1728 32.0156 
799 1 48.729 54.5394 34.1918 
851 1 37.9974 61.8954 36.6761 
498 1 44.4699 49.5461 27.0525 
903 1 48.6662 35.9998 31.2234 
914 1 60.4063 60.2787 29.7519 
922 1 46.5247 59.1763 36.6236 
931 1 41.6171 48.4077 34.7241 
950 1 37.8216 40.2083 29.6152 
982 1 64.4451 64.413 30.0646 
997 1 40.7246 39.4354 32.0541 
40 1 57.2001 35.4247 27.2903 
47 1 55.8875 58.3039 27.0885 
59 1 58.3003 44.184 29.3188 
94 1 45.5356 32.4462 32.3373 
48 1 48.7182 38.5524 27.5261 
845 1 56.781 49.8291 26.3989 
826 1 49.9217 43.5592 27.8763 
93 1 40.6873 55.4432 26.7507 
781 1 51.112 33.8186 27.4679 
15 1 -0.302362 47.8284 34.2083 
424 1 41.873 46.749 27.3054 
724 1 35.3842 62.5238 29.261 
380 1 33.9078 43.6326 36.4697 
510 1 41.7002 41.1446 28.508 
657 1 41.6448 34.0838 26.7126 
521 1 50.5288 49.437 27.9155 
573 1 48.7452 57.8823 27.1055 
579 1 62.4426 58.1618 27.786 
11 1 34.8676 46.9093 38.3553 
26 1 62.7775 60.5348 37.7475 
508 1 -0.883062 44.7392 38.9535 
28 1 48.5609 34.0705 37.3073 
932 1 46.0386 54.3617 39.0771 
125 1 58.6814 49.6495 34.58 
228 1 43.9537 38.3926 37.2926 
261 1 42.7272 45.7788 36.3235 
275 1 37.1075 37.2986 38.7825 
298 1 55.6959 64.7087 37.3436 
360 1 64.5716 39.1098 37.3307 
430 1 53.5913 39.2325 38.6764 
441 1 55.261 56.8136 36.5914 
453 1 54.4014 43.7394 36.9429 
564 1 47.6423 45.8085 35.3933 
621 1 54.0708 50.2701 37.0129 
599 1 42.3658 52.1412 37.9699 
562 1 36.2508 57.1035 37.1661 
601 1 34.6397 52.9615 39.2377 
74 1 63.3365 32.9 27.4246 
92 1 38.0429 52.9729 39.0811 
981 1 57.3761 49.4972 41.6365 
485 1 44.8277 61.7077 39.81 
898 1 39.3376 44.0251 40.0168 
887 1 54.578 48.3996 40.3555 
73 1 49.3973 54.0514 41.8425 
87 1 37.9101 64.4049 42.2996 
349 1 60.1184 32.7748 45.058 
99 1 52.7325 59.1143 44.2859 
113 1 45.0762 49.6925 41.7025 
866 1 59.0133 38.1806 43.2476 
136 1 50.1123 41.7209 40.6822 
52 1 39.1006 35.8427 44.5365 
820 1 59.4264 52.0595 39.3018 
247 1 37.2379 33.6696 41.9553 
252 1 45.573 41.6916 40.2749 
287 1 -0.457239 39.2357 42.7503 
775 1 58.4824 41.9787 43.2947 
279 1 60.2883 59 44.6759 
722 1 37.4298 52.2834 43.1286 
316 1 57.6313 54.8739 44.5883 
711 1 47.5073 36.5437 43.3955 
383 1 41.7882 36.5006 40.3422 
674 1 48.5279 61.2916 41.2995 
432 1 48.6009 41.0871 45.9943 
639 1 40.9609 59.629 40.0661 
627 1 60.837 47.288 41.4922 
470 1 57.8849 64.2123 40.1978 
613 1 42.1828 44.8549 43.6169 
487 1 63.5467 59.1871 41.2159 
75 1 44.311 57.0941 44.0149 
65 1 32.3105 37.2931 39.8638 
7 1 46.9454 55.792 50.5375 
979 1 59.0938 40.1148 47.8958 
973 1 61.4721 39.6498 51.3087 
966 1 41.2413 59.941 44.3488 
959 1 49.7024 42.1134 51.689 
517 1 50.1611 49.6224 39.3174 
939 1 52.6157 40.4463 44.2778 
928 1 39.2964 54.9721 51.5038 
925 1 54.6669 34.8573 47.2766 
906 1 35.1089 57.8531 44.5769 
904 1 46.6311 39.0141 48.257 
214 1 48.4684 32.8946 42.4414 
834 1 64.4935 34.6466 43.4047 
822 1 38.902 42.3107 51.9927 
811 1 60.5584 63.4277 44.396 
800 1 54.4354 62.9874 46.7436 
783 1 43.6236 47.8357 48.8316 
769 1 57.4486 50.0321 51.5885 
739 1 56.187 43.0729 49.0937 
703 1 49.2309 48.3884 45.7143 