Untitled

1000 atoms
0 bonds
0 angles
0 dihedrals
0 impropers

1 atom types

  0.0500000  65.3787000 xlo xhi
  0.0300000  65.3587000 ylo yhi
  0.0100000  65.3387000 zlo zhi

Masses

1 216.2003960

Atoms

     1      1      1 0.00000000   27.8300000   42.2100000   52.6700000
     2      2      1 0.00000000   21.9900000   64.7600000   63.4500000
     3      3      1 0.00000000   33.9300000   19.0500000   59.3100000
     4      4      1 0.00000000   30.0900000    3.6100000   30.4300000
     5      5      1 0.00000000    4.9100000   24.7700000   28.0800000
     6      6      1 0.00000000    2.6900000    1.3300000   42.9800000
     7      7      1 0.00000000   47.8400000   55.4900000   63.4900000
     8      8      1 0.00000000    2.5100000   27.7300000   35.4500000
     9      9      1 0.00000000    5.3000000   61.0300000    2.2900000
    10     10      1 0.00000000   52.7300000   20.2700000   57.4200000
    11     11      1 0.00000000   35.8600000   47.6300000   42.9100000
    12     12      1 0.00000000   24.6100000   12.0000000   64.9400000
    13     13      1 0.00000000   12.7500000   57.5200000    3.1500000
    14     14      1 0.00000000   25.8600000   42.2600000   13.4700000
    15     15      1 0.00000000    0.0500000   48.1200000   34.3400000
    16     16      1 0.00000000   44.6900000   47.0300000   28.6600000
    17     17      1 0.00000000   27.0800000   12.5700000   30.9100000
    18     18      1 0.00000000   31.7200000   41.8600000   21.4300000
    19     19      1 0.00000000   33.1100000   10.7700000   41.6400000
    20     20      1 0.00000000   64.1400000   50.7100000   63.0200000
    21     21      1 0.00000000   35.7800000   14.0900000    3.9600000
    22     22      1 0.00000000   37.2900000   48.7900000   30.7500000
    23     23      1 0.00000000   10.9500000   22.5100000   52.3300000
    24     24      1 0.00000000   40.9700000    5.4500000   33.6000000
    25     25      1 0.00000000    1.7400000   59.0000000   13.1900000
    26     26      1 0.00000000   62.1900000   60.1400000   41.6400000
    27     27      1 0.00000000   24.1000000   32.9200000   50.3700000
    28     28      1 0.00000000   48.6800000   33.4900000   39.4300000
    29     29      1 0.00000000   20.0400000   15.3500000   27.9300000
    30     30      1 0.00000000   24.3700000   13.2300000   59.9600000
    31     31      1 0.00000000   61.0100000   37.7400000   27.2900000
    32     32      1 0.00000000   47.6100000   25.6100000   54.9800000
    33     33      1 0.00000000   34.0500000   36.4300000   28.2000000
    34     34      1 0.00000000    8.6000000   41.8200000   15.8400000
    35     35      1 0.00000000   61.2900000    3.4300000   27.0700000
    36     36      1 0.00000000   63.0700000   17.4700000   56.9100000
    37     37      1 0.00000000   12.7400000    9.4500000   44.9700000
    38     38      1 0.00000000   29.8600000   50.0100000   11.4000000
    39     39      1 0.00000000   17.0600000   29.2200000   24.2700000
    40     40      1 0.00000000   57.5100000   35.0200000   22.6400000
    41     41      1 0.00000000   33.3800000   41.5800000   58.2500000
    42     42      1 0.00000000   38.9000000   40.8000000   18.8600000
    43     43      1 0.00000000   43.6300000   56.1600000   27.9100000
    44     44      1 0.00000000   28.1400000   34.6400000   12.9900000
    45     45      1 0.00000000   58.2500000   35.2900000   12.3800000
    46     46      1 0.00000000   51.0800000    7.9500000   58.3300000
    47     47      1 0.00000000   54.3200000   57.5000000   22.9100000
    48     48      1 0.00000000   49.8100000   38.2200000   20.0200000
    49     49      1 0.00000000   22.6700000   54.4200000   56.0500000
    50     50      1 0.00000000    9.9600000   15.8200000   27.1900000
    51     51      1 0.00000000   29.5700000   47.4900000   23.2400000
    52     52      1 0.00000000   38.7000000   35.8700000   53.5500000
    53     53      1 0.00000000   64.4200000   25.9800000   16.1500000
    54     54      1 0.00000000    2.7500000   14.6300000   61.0100000
    55     55      1 0.00000000   16.1300000    5.4700000   57.4800000
    56     56      1 0.00000000   17.0300000   39.4500000   29.6900000
    57     57      1 0.00000000   56.1000000   34.6000000   33.9200000
    58     58      1 0.00000000    3.9200000   23.1200000   62.2800000
    59     59      1 0.00000000   58.4100000   44.2600000   25.2700000
    60     60      1 0.00000000   37.7400000   27.7900000   38.5300000
    61     61      1 0.00000000   40.8100000   51.1600000   62.4700000
    62     62      1 0.00000000   20.8300000   38.8900000   33.5100000
    63     63      1 0.00000000    8.2000000   52.9800000   57.5800000
    64     64      1 0.00000000   28.9400000   64.2400000   54.2700000
    65     65      1 0.00000000   33.0700000   37.4600000   43.4600000
    66     66      1 0.00000000   44.3500000   62.2300000    9.0000000
    67     67      1 0.00000000   65.2200000    3.0500000   40.6400000
    68     68      1 0.00000000   31.5600000    0.9100000   46.8500000
    69     69      1 0.00000000   39.3900000   24.3500000   46.1200000
    70     70      1 0.00000000    9.1500000   48.5500000    9.9700000
    71     71      1 0.00000000   53.8000000   30.6500000   30.0400000
    72     72      1 0.00000000   19.5300000   29.0900000    2.8200000
    73     73      1 0.00000000   50.5700000   54.5000000   48.5700000
    74     74      1 0.00000000   63.7100000   34.0200000   23.7000000
    75     75      1 0.00000000   43.8200000   56.3000000   54.8900000
    76     76      1 0.00000000   50.0700000    4.6200000   41.9600000
    77     77      1 0.00000000   64.6900000   45.7000000    2.8900000
    78     78      1 0.00000000    5.1700000   28.1600000   38.5300000
    79     79      1 0.00000000   13.0600000   51.7200000    5.9000000
    80     80      1 0.00000000   19.5900000   26.4600000   32.9400000
    81     81      1 0.00000000   32.9600000   12.1000000   53.2100000
    82     82      1 0.00000000   47.8600000    5.2300000    2.5100000
    83     83      1 0.00000000    7.2600000   25.2900000   32.4600000
    84     84      1 0.00000000   20.1600000   36.0900000   52.6200000
    85     85      1 0.00000000   51.2600000   51.7600000   35.2900000
    86     86      1 0.00000000   25.5200000   54.3200000   16.1200000
    87     87      1 0.00000000   38.4300000   64.0300000   49.5900000
    88     88      1 0.00000000    7.9800000   47.8200000   20.5100000
    89     89      1 0.00000000   30.4700000   58.2400000   47.2700000
    90     90      1 0.00000000   60.7800000   39.1900000   16.6900000
    91     91      1 0.00000000   21.2900000   39.0500000   43.6100000
    92     92      1 0.00000000   38.2400000   52.5800000   46.2600000
    93     93      1 0.00000000   42.2300000   55.1100000   22.5000000
    94     94      1 0.00000000   44.6200000   32.7100000   32.2600000
    95     95      1 0.00000000   36.1800000    6.3900000   51.2800000
    96     96      1 0.00000000   36.3700000   63.8400000    8.4900000
    97     97      1 0.00000000   20.5000000   53.8100000   63.3500000
    98     98      1 0.00000000   41.9600000    1.6300000   64.4500000
    99     99      1 0.00000000   52.9600000   58.9400000   49.5300000
   100    100      1 0.00000000   17.1800000   40.5900000    5.6500000
   101    101      1 0.00000000   49.7700000   14.0200000   50.2800000
   102    102      1 0.00000000   64.5700000    6.1500000    9.8900000
   103    103      1 0.00000000   13.8700000   49.8200000   59.2300000
   104    104      1 0.00000000   52.5600000   42.1800000    0.1100000
   105    105      1 0.00000000   26.4000000   18.7400000   52.5700000
   106    106      1 0.00000000   47.6400000   41.4400000   37.3700000
   107    107      1 0.00000000    1.5200000    5.7600000   15.8900000
   108    108      1 0.00000000   32.8800000   18.8700000   30.4100000
   109    109      1 0.00000000    5.5700000   48.1200000   33.6100000
   110    110      1 0.00000000   27.5000000   24.2700000   11.9300000
   111    111      1 0.00000000   23.6600000   57.8400000   62.4400000
   112    112      1 0.00000000   14.8100000   54.3800000   11.7800000
   113    113      1 0.00000000   46.4700000   50.8500000   50.4800000
   114    114      1 0.00000000   58.7700000    9.3800000   55.7600000
   115    115      1 0.00000000   23.9100000    2.2600000   25.5600000
   116    116      1 0.00000000   54.6400000   20.8600000    6.5300000
   117    117      1 0.00000000   22.3400000   13.7100000    3.3900000
   118    118      1 0.00000000   30.5400000   22.0400000    3.5300000
   119    119      1 0.00000000   20.1400000   11.0800000   48.8300000
   120    120      1 0.00000000   28.3800000   25.8000000   35.6900000
   121    121      1 0.00000000   52.7700000   56.8400000   10.8100000
   122    122      1 0.00000000   11.0000000   35.9700000   36.7300000
   123    123      1 0.00000000   40.1500000   59.2100000    1.4700000
   124    124      1 0.00000000   59.3700000    6.0300000    0.5500000
   125    125      1 0.00000000   58.6500000   49.2200000   39.5300000
   126    126      1 0.00000000   61.8800000   21.1900000   19.6200000
   127    127      1 0.00000000   54.7300000   33.9500000    6.2800000
   128    128      1 0.00000000   23.5100000   30.2200000   31.7000000
   129    129      1 0.00000000   37.1400000   40.5000000   55.2300000
   130    130      1 0.00000000   49.5300000   13.2500000   64.7300000
   131    131      1 0.00000000   12.6200000   20.7600000   17.1800000
   132    132      1 0.00000000   37.1000000   52.7200000   57.8300000
   133    133      1 0.00000000   46.0000000   10.3000000   10.8100000
   134    134      1 0.00000000   60.0400000   57.4500000   36.6800000
   135    135      1 0.00000000   19.4000000   24.4700000   13.9400000
   136    136      1 0.00000000   49.1200000   41.0700000   46.9600000
   137    137      1 0.00000000   11.7900000   56.4800000   59.9400000
   138    138      1 0.00000000    3.5700000   57.2800000   33.1800000
   139    139      1 0.00000000   62.1500000   22.0200000   63.9800000
   140    140      1 0.00000000   38.5600000   18.2700000   62.1600000
   141    141      1 0.00000000    8.9900000   30.8500000   39.5700000
   142    142      1 0.00000000   21.6100000   46.3600000   42.3400000
   143    143      1 0.00000000   15.5000000   24.4500000   21.6900000
   144    144      1 0.00000000   13.4900000   13.9200000   56.7000000
   145    145      1 0.00000000    7.4200000   16.4400000   10.9300000
   146    146      1 0.00000000    5.6200000   37.2300000    8.7800000
   147    147      1 0.00000000    9.8600000   36.9800000   46.1800000
   148    148      1 0.00000000   11.5800000   58.4100000   26.1100000
   149    149      1 0.00000000   16.6500000   51.4300000   41.2000000
   150    150      1 0.00000000   19.0400000   20.1600000   54.2700000
   151    151      1 0.00000000   20.3800000   58.1300000   59.4800000
   152    152      1 0.00000000   18.7200000   49.7500000   13.2400000
   153    153      1 0.00000000   41.2500000   61.3600000   32.6400000
   154    154      1 0.00000000   34.0200000   11.1100000   57.4900000
   155    155      1 0.00000000   58.9000000   61.6600000   21.7800000
   156    156      1 0.00000000   53.8500000   61.4200000   62.6200000
   157    157      1 0.00000000   45.3800000   40.5000000   33.6100000
   158    158      1 0.00000000   60.6900000   54.5500000   60.8300000
   159    159      1 0.00000000   62.8300000   14.8900000   39.7900000
   160    160      1 0.00000000   43.1400000   13.8500000   19.8400000
   161    161      1 0.00000000   49.6400000    2.5900000    8.0600000
   162    162      1 0.00000000   40.6400000   44.2900000    5.6900000
   163    163      1 0.00000000    9.4300000   40.7800000    6.0500000
   164    164      1 0.00000000   49.0500000   62.1700000   21.0300000
   165    165      1 0.00000000    1.0000000   24.8700000   47.8100000
   166    166      1 0.00000000   61.9100000   12.6900000   45.3800000
   167    167      1 0.00000000   11.7600000    8.7800000   52.0800000
   168    168      1 0.00000000    1.1500000   60.0900000    6.9400000
   169    169      1 0.00000000    0.7200000   56.4300000   43.8200000
   170    170      1 0.00000000   11.4500000   32.9600000   27.3800000
   171    171      1 0.00000000   49.8900000   64.4300000   54.4100000
   172    172      1 0.00000000    7.8600000   41.7400000   24.0900000
   173    173      1 0.00000000   13.1500000   11.8800000   21.3200000
   174    174      1 0.00000000   13.4200000   28.2100000   40.4800000
   175    175      1 0.00000000   48.8000000   64.3100000   33.8900000
   176    176      1 0.00000000    9.9500000   57.7200000    8.4300000
   177    177      1 0.00000000   63.7500000   19.7400000   29.3100000
   178    178      1 0.00000000   44.2100000   51.3900000   10.8400000
   179    179      1 0.00000000   53.3900000   23.0700000   61.7000000
   180    180      1 0.00000000    2.6900000   20.0000000   13.8800000
   181    181      1 0.00000000   64.1300000   51.9800000   39.2000000
   182    182      1 0.00000000   19.4400000   25.4100000   18.6100000
   183    183      1 0.00000000   11.9100000    1.8900000   60.5500000
   184    184      1 0.00000000   47.6100000   48.9100000   58.7600000
   185    185      1 0.00000000   34.9500000    6.9900000    1.3800000
   186    186      1 0.00000000   56.7900000   13.3900000   59.3100000
   187    187      1 0.00000000   10.5900000   53.0400000   45.5100000
   188    188      1 0.00000000   28.5400000   14.5700000    5.1900000
   189    189      1 0.00000000   47.8300000   18.3400000   47.5500000
   190    190      1 0.00000000    8.9500000   47.6600000   33.8500000
   191    191      1 0.00000000   42.9000000   21.4100000    5.3900000
   192    192      1 0.00000000   42.5600000   30.6500000   44.2100000
   193    193      1 0.00000000   56.9500000   25.3400000   60.6000000
   194    194      1 0.00000000   48.3900000   17.7700000   16.3900000
   195    195      1 0.00000000   17.0400000   26.0600000   59.6800000
   196    196      1 0.00000000   32.0000000   30.8000000    7.2300000
   197    197      1 0.00000000   20.4800000   13.2500000   41.0900000
   198    198      1 0.00000000    1.1000000   35.3600000   34.8500000
   199    199      1 0.00000000   52.2100000   42.4800000    6.3500000
   200    200      1 0.00000000   14.7400000    7.1700000   12.9400000
   201    201      1 0.00000000   53.9700000    3.1400000   65.2300000
   202    202      1 0.00000000   54.2000000   18.6600000   23.8800000
   203    203      1 0.00000000    0.8100000   42.3700000   48.5000000
   204    204      1 0.00000000    4.1900000   61.6600000   48.0300000
   205    205      1 0.00000000    3.2500000   39.1500000   16.4300000
   206    206      1 0.00000000   37.8500000   10.6600000   11.2100000
   207    207      1 0.00000000    8.4000000   64.5000000   65.0000000
   208    208      1 0.00000000   47.9800000   42.2900000   15.9100000
   209    209      1 0.00000000   33.1800000   51.1900000   33.9100000
   210    210      1 0.00000000   47.6500000   54.4300000   19.3700000
   211    211      1 0.00000000    7.9600000   13.0200000   32.0900000
   212    212      1 0.00000000   35.1700000    5.6100000   42.9600000
   213    213      1 0.00000000    2.8300000    0.1300000    9.8900000
   214    214      1 0.00000000   49.6300000   32.8000000   50.3400000
   215    215      1 0.00000000   58.8800000    2.6600000    9.1500000
   216    216      1 0.00000000   28.5800000   44.7800000    5.5100000
   217    217      1 0.00000000   42.2400000   31.5700000   52.0600000
   218    218      1 0.00000000   61.5100000   50.1600000   20.5900000
   219    219      1 0.00000000   11.7900000   33.9300000   43.6200000
   220    220      1 0.00000000    2.2300000   53.6100000    9.5600000
   221    221      1 0.00000000   29.9200000    6.7500000   57.5500000
   222    222      1 0.00000000   60.9000000   47.0600000   28.3400000
   223    223      1 0.00000000   19.3000000   56.9800000    6.7100000
   224    224      1 0.00000000   60.6900000   14.3200000   23.8100000
   225    225      1 0.00000000   56.8300000   58.2400000   56.1200000
   226    226      1 0.00000000   34.7000000   44.3500000   53.3900000
   227    227      1 0.00000000   50.3200000   28.4400000   62.8100000
   228    228      1 0.00000000   46.1500000   38.4900000   41.7700000
   229    229      1 0.00000000   16.1700000   37.5600000   60.6700000
   230    230      1 0.00000000   10.1200000   39.1600000   31.3500000
   231    231      1 0.00000000   33.4300000    7.3000000   15.0800000
   232    232      1 0.00000000   19.1500000   46.2100000   15.1500000
   233    233      1 0.00000000   37.7100000   37.4200000   61.7400000
   234    234      1 0.00000000   10.3900000    6.8400000   33.4000000
   235    235      1 0.00000000   36.2200000   44.8100000   32.9300000
   236    236      1 0.00000000   57.4100000    9.2700000   21.3800000
   237    237      1 0.00000000   56.9900000   18.6800000   64.5200000
   238    238      1 0.00000000    2.4400000   10.5400000   21.0200000
   239    239      1 0.00000000   13.8600000   38.0100000   47.2700000
   240    240      1 0.00000000   17.7400000   55.0000000   49.2500000
   241    241      1 0.00000000   33.5300000   18.6300000   13.8000000
   242    242      1 0.00000000   34.3900000    1.0600000   19.7900000
   243    243      1 0.00000000    5.1000000   18.0100000    3.4500000
   244    244      1 0.00000000   54.6800000   13.2500000   10.7500000
   245    245      1 0.00000000   53.7400000   40.8300000   33.5900000
   246    246      1 0.00000000   45.7800000   28.2300000    3.7800000
   247    247      1 0.00000000   37.6100000   34.7600000   48.3500000
   248    248      1 0.00000000   10.8500000    9.9400000   16.3600000
   249    249      1 0.00000000   17.0500000    9.1800000   38.7400000
   250    250      1 0.00000000   54.4600000    2.9700000    5.1200000
   251    251      1 0.00000000   17.0100000   54.9500000   21.7700000
   252    252      1 0.00000000   44.6700000   41.5500000   45.2300000
   253    253      1 0.00000000   60.1400000   54.1900000    4.3600000
   254    254      1 0.00000000   32.4900000   31.8900000   30.5800000
   255    255      1 0.00000000   16.0400000    6.1900000   23.6100000
   256    256      1 0.00000000   21.4400000   42.4800000   18.3900000
   257    257      1 0.00000000   30.4900000   17.5500000   48.5600000
   258    258      1 0.00000000   35.6600000   39.2700000   18.0100000
   259    259      1 0.00000000   11.4900000   10.0600000   62.1500000
   260    260      1 0.00000000    9.6900000   60.5900000   54.3600000
   261    261      1 0.00000000   42.7500000   45.3700000   39.8200000
   262    262      1 0.00000000   15.5400000   37.6100000   38.5900000
   263    263      1 0.00000000   30.4000000   39.7300000   34.5200000
   264    264      1 0.00000000   22.4700000   14.6700000   13.7300000
   265    265      1 0.00000000    9.6100000   54.9800000   29.5900000
   266    266      1 0.00000000   33.6800000   45.8200000   26.7600000
   267    267      1 0.00000000   39.2900000   25.9300000   56.4700000
   268    268      1 0.00000000    8.0500000   43.8800000   51.5100000
   269    269      1 0.00000000   51.6200000   10.3800000   40.8600000
   270    270      1 0.00000000   52.8600000    8.6600000   24.4600000
   271    271      1 0.00000000   59.8000000   32.6700000   27.6500000
   272    272      1 0.00000000   60.4700000   60.2500000   63.4300000
   273    273      1 0.00000000    3.7900000   14.6900000   46.3400000
   274    274      1 0.00000000   36.0100000   52.0400000   26.3300000
   275    275      1 0.00000000   37.2500000   38.3700000   41.5100000
   276    276      1 0.00000000   38.8600000   58.5900000   30.5100000
   277    277      1 0.00000000   43.5100000   31.0000000   57.2900000
   278    278      1 0.00000000   10.9700000   63.8800000   61.8800000
   279    279      1 0.00000000   61.3100000   57.4800000   52.2600000
   280    280      1 0.00000000   13.1200000    2.5400000   21.8600000
   281    281      1 0.00000000   58.4100000   15.8700000   54.5700000
   282    282      1 0.00000000   17.2700000   49.7000000   52.7300000
   283    283      1 0.00000000   41.0400000   10.9300000   26.3900000
   284    284      1 0.00000000   51.1100000   27.5200000    3.2600000
   285    285      1 0.00000000   23.0100000   63.2300000   20.6500000
   286    286      1 0.00000000   55.2300000   61.1500000   31.8800000
   287    287      1 0.00000000    0.5900000   38.8200000   50.7300000
   288    288      1 0.00000000   38.7900000   24.7900000    5.2000000
   289    289      1 0.00000000   11.3500000   40.6900000   38.7400000
   290    290      1 0.00000000   21.9800000   61.9000000    9.8300000
   291    291      1 0.00000000   59.4500000   19.7800000    1.8400000
   292    292      1 0.00000000    4.4900000   38.2100000    0.7800000
   293    293      1 0.00000000    7.5000000    4.7500000   24.1700000
   294    294      1 0.00000000   64.1000000   55.0200000   27.4400000
   295    295      1 0.00000000   34.7100000   24.4300000   48.9500000
   296    296      1 0.00000000   29.4100000   46.6000000   50.4900000
   297    297      1 0.00000000   65.0700000   10.8400000   25.4100000
   298    298      1 0.00000000   54.3700000   62.8300000   39.2300000
   299    299      1 0.00000000   53.5600000   46.9600000   18.0200000
   300    300      1 0.00000000    6.7700000   57.0500000   13.1400000
   301    301      1 0.00000000   64.0700000   15.8400000   34.1600000
   302    302      1 0.00000000   52.6100000   13.2200000   23.8700000
   303    303      1 0.00000000   13.0100000   22.5800000   35.3800000
   304    304      1 0.00000000   26.5500000   58.0300000   53.5500000
   305    305      1 0.00000000   12.7700000   26.0800000    9.2100000
   306    306      1 0.00000000    9.6800000   44.6600000   43.0400000
   307    307      1 0.00000000   16.3400000    1.7800000   64.8500000
   308    308      1 0.00000000   14.0600000   64.5800000   43.1800000
   309    309      1 0.00000000    3.1800000    2.1900000   49.6600000
   310    310      1 0.00000000    5.4400000   51.6400000   64.5000000
   311    311      1 0.00000000   53.8400000   44.9000000   26.7100000
   312    312      1 0.00000000    9.1600000   18.1300000   34.9800000
   313    313      1 0.00000000   57.9800000   19.7500000   50.3500000
   314    314      1 0.00000000   47.9200000   14.2900000   16.3600000
   315    315      1 0.00000000   49.4700000   34.9600000    4.5100000
   316    316      1 0.00000000   57.7400000   55.9300000   51.8500000
   317    317      1 0.00000000   41.4800000   35.5100000   10.3400000
   318    318      1 0.00000000   64.4000000   31.2900000   10.1900000
   319    319      1 0.00000000   40.2200000    4.8500000   29.5300000
   320    320      1 0.00000000   47.3400000   21.2800000   49.4800000
   321    321      1 0.00000000   62.3100000   46.1700000    6.8200000
   322    322      1 0.00000000   32.7300000   61.2000000   31.1400000
   323    323      1 0.00000000   51.1000000    9.7900000   53.2200000
   324    324      1 0.00000000   27.2000000   52.3700000   50.0800000
   325    325      1 0.00000000    5.1800000    2.4700000    5.9300000
   326    326      1 0.00000000   44.6300000    7.4700000    2.2700000
   327    327      1 0.00000000   26.6600000   16.7600000   61.8200000
   328    328      1 0.00000000   57.3700000    8.0100000   13.2900000
   329    329      1 0.00000000   39.1300000   46.6600000   19.2300000
   330    330      1 0.00000000   51.7400000   26.2300000   34.2000000
   331    331      1 0.00000000   23.9000000   36.8500000   35.1900000
   332    332      1 0.00000000   31.0400000   34.0900000   51.6300000
   333    333      1 0.00000000   25.7500000   23.4500000   21.7600000
   334    334      1 0.00000000    8.1800000    5.9600000   51.9700000
   335    335      1 0.00000000   42.0800000   13.7200000   62.4700000
   336    336      1 0.00000000   16.9300000   42.2900000   22.0300000
   337    337      1 0.00000000   27.1000000   62.2500000   62.0400000
   338    338      1 0.00000000   44.7400000   23.2100000   25.4800000
   339    339      1 0.00000000   16.6700000   28.9700000   11.2700000
   340    340      1 0.00000000    4.0200000   21.9800000   40.7700000
   341    341      1 0.00000000   35.6800000   60.3300000   62.3400000
   342    342      1 0.00000000   36.8300000   64.4600000   17.3700000
   343    343      1 0.00000000   42.5200000   14.8600000    4.6100000
   344    344      1 0.00000000   37.9600000   60.2800000   12.8400000
   345    345      1 0.00000000    5.2400000   14.8900000   50.3300000
   346    346      1 0.00000000    9.7100000   57.8800000   40.5900000
   347    347      1 0.00000000   58.1500000   30.8000000   17.3300000
   348    348      1 0.00000000   49.2400000   39.2400000   10.9100000
   349    349      1 0.00000000   60.1000000   32.3300000   53.8600000
   350    350      1 0.00000000    3.6100000    0.0300000   22.1300000
   351    351      1 0.00000000   29.4700000    9.3000000   13.1500000
   352    352      1 0.00000000   47.2200000    9.2700000   23.9200000
   353    353      1 0.00000000   31.0100000   54.3500000   47.7800000
   354    354      1 0.00000000    7.6900000   32.8200000   14.3100000
   355    355      1 0.00000000   63.9800000   17.3400000    5.6700000
   356    356      1 0.00000000   44.5900000   62.3700000   26.5600000
   357    357      1 0.00000000   30.3500000   26.1900000   55.5200000
   358    358      1 0.00000000   21.1100000   23.1500000   62.0700000
   359    359      1 0.00000000   44.2000000   33.2500000    4.2700000
   360    360      1 0.00000000   63.3900000   40.6600000   40.7300000
   361    361      1 0.00000000   23.9400000   19.6700000    2.3400000
   362    362      1 0.00000000   60.6800000   14.6700000   15.6400000
   363    363      1 0.00000000   64.8700000   64.9800000   63.5700000
   364    364      1 0.00000000   11.8600000   30.5700000   30.8600000
   365    365      1 0.00000000   19.0000000   42.3500000   49.1000000
   366    366      1 0.00000000   44.8800000   21.6100000   12.1900000
   367    367      1 0.00000000   11.0900000   43.0700000   58.9100000
   368    368      1 0.00000000    3.2200000   12.8100000    6.9300000
   369    369      1 0.00000000   24.5400000   10.9900000   52.1600000
   370    370      1 0.00000000    7.7700000    6.7600000   56.6500000
   371    371      1 0.00000000   33.4700000   55.1400000   10.2400000
   372    372      1 0.00000000    3.1800000   25.2200000   16.7300000
   373    373      1 0.00000000   39.6100000   17.8900000   29.6000000
   374    374      1 0.00000000   56.5500000   48.4500000   55.2700000
   375    375      1 0.00000000   27.9300000   48.5500000   58.3100000
   376    376      1 0.00000000   42.5800000   29.4600000   10.3300000
   377    377      1 0.00000000   34.9500000   30.5700000   51.3000000
   378    378      1 0.00000000   42.9600000   30.9600000   63.3700000
   379    379      1 0.00000000    3.5300000   30.3300000   26.6100000
   380    380      1 0.00000000   33.1700000   43.9800000   38.0200000
   381    381      1 0.00000000    9.7900000    6.0500000    3.4700000
   382    382      1 0.00000000   34.1000000   19.0900000   43.3700000
   383    383      1 0.00000000   41.4100000   35.8400000   45.4000000
   384    384      1 0.00000000   64.3800000   46.9300000   57.5700000
   385    385      1 0.00000000   51.8500000   57.9800000   33.8400000
   386    386      1 0.00000000    6.7500000   29.0400000   61.5600000
   387    387      1 0.00000000   24.4100000   60.9600000    5.3000000
   388    388      1 0.00000000   40.8500000   43.5400000   59.3800000
   389    389      1 0.00000000   11.6000000   45.1700000   25.6500000
   390    390      1 0.00000000   30.3900000   61.0700000   50.1300000
   391    391      1 0.00000000    8.3900000   31.7800000   51.8600000
   392    392      1 0.00000000   33.1500000   43.9400000    5.5800000
   393    393      1 0.00000000   20.6900000   62.0400000   48.7000000
   394    394      1 0.00000000   53.2800000    6.2200000   31.5200000
   395    395      1 0.00000000   35.1700000    2.1000000   58.8000000
   396    396      1 0.00000000   60.0400000    0.9300000   39.6200000
   397    397      1 0.00000000   11.7300000   30.2300000   17.9900000
   398    398      1 0.00000000   34.6700000   55.4600000   19.5500000
   399    399      1 0.00000000   10.5200000   58.1200000   13.7300000
   400    400      1 0.00000000   60.9500000   34.4500000   63.3900000
   401    401      1 0.00000000   28.7600000   41.6700000   44.7300000
   402    402      1 0.00000000    1.5700000   59.4400000    1.5800000
   403    403      1 0.00000000   43.7200000   61.0000000   60.2200000
   404    404      1 0.00000000   37.8300000   33.5200000    5.1600000
   405    405      1 0.00000000   55.7700000   29.6200000   45.1000000
   406    406      1 0.00000000   28.6100000   38.9900000   29.5100000
   407    407      1 0.00000000   34.1700000   22.3800000   56.6600000
   408    408      1 0.00000000   32.0200000    5.6000000    5.1900000
   409    409      1 0.00000000   32.3400000   62.0800000   56.0000000
   410    410      1 0.00000000   12.2800000   23.8400000   24.2400000
   411    411      1 0.00000000   47.4900000    4.5300000   13.8700000
   412    412      1 0.00000000    0.9000000   49.2600000   16.7000000
   413    413      1 0.00000000   61.7400000   21.8200000   12.6800000
   414    414      1 0.00000000   23.7300000   43.3700000   58.3300000
   415    415      1 0.00000000   16.4500000   18.8800000   42.6900000
   416    416      1 0.00000000   42.5800000    8.6800000    7.7300000
   417    417      1 0.00000000   42.9900000   12.0300000   54.2800000
   418    418      1 0.00000000   24.2100000   61.1600000   41.8000000
   419    419      1 0.00000000   60.4500000   43.1000000   11.8600000