LAMMPS (13 Aug 2016-ICMS)
units real
atom_style full

dimension 3
timestep  1.0
boundary p p f

read_data data.lmp
  orthogonal box = (0.05 0.03 0.01) to (65.3787 65.3587 65.3387)
  2 by 2 by 5 MPI processor grid
  reading atoms ...
  1000 atoms
  reading velocities ...
  1000 velocities
  0 = max # of 1-2 neighbors
  0 = max # of 1-3 neighbors
  0 = max # of 1-4 neighbors
  1 = max # of special neighbors

pair_style table linear 1000
pair_coeff 1 1 A_A.xvg table_A_A

velocity all create 800 87287 loop geom
neighbor 3.0 bin
neigh_modify every 2 delay 10 check yes
fix  2 all nvt temp 700.0 700.0 10.0 #iso 25000.0 25000.0 1000.0
fix             3 all langevin 700.0 700.0 1.0 82859

variable Lz0 equal zhi
variable Lz equal ${Lz0}
variable Lz equal 65.3387

change_box all z delta -25.0 25.0 units box
  orthogonal box = (0.05 0.03 -24.99) to (65.3787 65.3587 90.3387)

fix wallz all wall/lj93 zlo EDGE 1.0 10.0 25.0 zhi EDGE 1.0 10.0 25.0 units box

print 'Lz = ${Lz}'
Lz = 65.3387

fix 1 all deform 10 z final 0.0 ${Lz} units box remap x
fix 1 all deform 10 z final 0.0 65.3387 units box remap x

dump myDump all atom 100 dump.atom

thermo_style    custom time temp evdwl pe ke etotal zlo zhi press
thermo          1000

run 100000
Neighbor list info ...
  1 neighbor list requests
  update every 2 steps, delay 10 steps, check yes
  max neighbors/atom: 2000, page size: 100000
  master list distance cutoff = 38
  ghost atom cutoff = 38
  binsize = 19 -> bins = 4 4 7
Memory usage per processor = 5.43779 Mbytes
Time Temp E_vdwl PotEng KinEng TotEng Zlo Zhi Press 
           0          800    10173.916    10173.916    2382.2634    12556.179       -24.99      90.3387    2283.2794 
        1000    681.61017    10227.155    10227.155    2029.7187    12256.874     -24.7401      90.0887    2260.1883 
        2000    700.04283    10287.993    10287.993     2084.608    12372.601     -24.4902      89.8387    2294.0293 
        3000    697.56758    10335.242    10335.242    2077.2371    12412.479     -24.2403      89.5887    2307.5276 
        4000    679.09792      10400.7      10400.7    2022.2376    12422.937     -23.9904      89.3387    2317.5099 
        5000     712.9039    10451.908    10451.908    2122.9061    12574.814     -23.7405      89.0887    2359.8457 
        6000    682.16962    10503.631    10503.631    2031.3846    12535.016     -23.4906      88.8387    2397.3702 
        7000    694.71015    10558.051    10558.051    2068.7282     12626.78     -23.2407      88.5887    2366.9432 
        8000    660.97677    10614.665    10614.665     1968.276    12582.941     -22.9908      88.3387    2386.9213 
        9000    695.40513    10671.322    10671.322    2070.7977    12742.119     -22.7409      88.0887    2424.9823 
       10000    689.59671    10732.664    10732.664    2053.5013    12786.165      -22.491      87.8387     2457.997 
       11000    691.07321    10793.631    10793.631     2057.898    12851.529     -22.2411      87.5887    2438.2504 
       12000    709.16806    10852.492    10852.492    2111.7814    12964.273     -21.9912      87.3387    2487.1669 
       13000    688.22296    10919.596    10919.596    2049.4104    12969.006     -21.7413      87.0887    2490.4568 
       14000    684.60858    10991.871    10991.871    2038.6474    13030.519     -21.4914      86.8387    2536.5426 
       15000    685.44172    11053.246    11053.246    2041.1284    13094.374     -21.2415      86.5887    2608.9833 
       16000    717.61346    11136.968    11136.968    2136.9303    13273.899     -20.9916      86.3387    2623.5463 
       17000     711.8818    11194.616    11194.616    2119.8624    13314.478     -20.7417      86.0887    2574.9324 
       18000    703.43689    11267.356    11267.356    2094.7149    13362.071     -20.4918      85.8387    2655.0335 
       19000    712.09332    11347.292    11347.292    2120.4923    13467.784     -20.2419      85.5887    2690.6064 
       20000    721.85628    11410.756    11410.756    2149.5647    13560.321      -19.992      85.3387    2712.9824 
       21000    698.04756    11486.926    11486.926    2078.6664    13565.592     -19.7421      85.0887    2745.3458 
       22000    673.48751     11558.62     11558.62    2005.5308    13564.151     -19.4922      84.8387    2758.0056 
       23000    698.51196    11640.788    11640.788    2080.0493    13720.838     -19.2423      84.5887    2757.9095 
       24000    717.96857    11706.414    11706.414    2137.9878    13844.402     -18.9924      84.3387    2790.8951 
       25000    689.96158    11783.116    11783.116    2054.5878    13837.704     -18.7425      84.0887    2838.9328 
       26000     694.1648    11861.437    11861.437    2067.1042    13928.541     -18.4926      83.8387     2846.632 
       27000    710.75277    11925.617    11925.617    2116.5004    14042.118     -18.2427      83.5887    2877.8256 
       28000    688.08119    12010.902    12010.902    2048.9883     14059.89     -17.9928      83.3387    2914.9412 
       29000    716.17576    12070.424    12070.424    2132.6491    14203.074     -17.7429      83.0887    2898.4717 
       30000    693.06894     12150.78     12150.78     2063.841    14214.621      -17.493      82.8387    2973.0631 
       31000    683.63352    12235.294    12235.294    2035.7439    14271.038     -17.2431      82.5887    2973.3455 
       32000    731.89712    12307.722    12307.722    2179.4646    14487.186     -16.9932      82.3387    3047.0486 
       33000    713.22988      12382.3      12382.3    2123.8768    14506.177     -16.7433      82.0887    3015.1717 
       34000    733.54881    12486.371    12486.371    2184.3831    14670.754     -16.4934      81.8387    3151.1634 
       35000    682.38329    12559.084    12559.084    2032.0209    14591.105     -16.2435      81.5887    3122.2698 
       36000    731.54626    12644.387    12644.387    2178.4199    14822.807     -15.9936      81.3387    3144.1005 
       37000    692.16007    12735.227    12735.227    2061.1345    14796.361     -15.7437      81.0887    3162.5578 
       38000    689.48752    12808.708    12808.708    2053.1761    14861.884     -15.4938      80.8387    3188.8451 
       39000    679.57285    12892.325    12892.325    2023.6519    14915.977     -15.2439      80.5887    3226.0843 
       40000    713.18905    12985.819    12985.819    2123.7552    15109.574      -14.994      80.3387    3300.2806 
       41000     680.8956    13075.702    13075.702    2027.5908    15103.292     -14.7441      80.0887    3347.7525 
       42000    708.27979    13165.889    13165.889    2109.1363    15275.026     -14.4942      79.8387    3371.7777 
       43000    718.95394     13248.68     13248.68    2140.9221    15389.602     -14.2443      79.5887    3366.7122 
       44000    717.95506    13304.749    13304.749    2137.9476    15442.697     -13.9944      79.3387    3389.0998 
       45000    699.79383    13400.244    13400.244    2083.8665     15484.11     -13.7445      79.0887    3459.3472 
       46000    695.40131    13490.208    13490.208    2070.7864    15560.994     -13.4946      78.8387    3499.3006 
       47000     686.2564    13568.738    13568.738    2043.5544    15612.293     -13.2447      78.5887    3519.1541 
       48000    702.40577    13659.112    13659.112    2091.6444    15750.756     -12.9948      78.3387    3604.1476 
       49000    722.83121    13734.636    13734.636    2152.4679    15887.104     -12.7449      78.0887    3606.0528 
       50000    708.77421     13824.98     13824.98    2110.6086    15935.588      -12.495      77.8387    3633.3603 
       51000    680.04869    13910.326    13910.326    2025.0689    15935.395     -12.2451      77.5887    3668.7636 
       52000    667.46866    13985.453    13985.453    1987.6077     15973.06     -11.9952      77.3387    3699.1006 
       53000    701.36432    14082.583    14082.583    2088.5432    16171.126     -11.7453      77.0887    3748.2076 
       54000    688.65428    14158.428    14158.428    2050.6949    16209.122     -11.4954      76.8387    3776.1556 
       55000    692.47131    14252.505    14252.505    2062.0613    16314.567     -11.2455      76.5887    3800.1729 
       56000     700.4613    14345.198    14345.198    2085.8541    16431.052     -10.9956      76.3387    3849.4308 
       57000    673.07847    14429.961    14429.961    2004.3127    16434.273     -10.7457      76.0887    3936.6484 
       58000    686.38803    14533.104    14533.104    2043.9463     16577.05     -10.4958      75.8387     3962.005 
       59000    695.10546    14636.743    14636.743    2069.9053    16706.648     -10.2459      75.5887    3983.6312 
       60000    721.98776    14735.776    14735.776    2149.9563    16885.732       -9.996      75.3387    3966.9252 
       61000    703.43134     14839.02     14839.02    2094.6984    16933.719      -9.7461      75.0887    4034.3279 
       62000    686.84715    14936.797    14936.797    2045.3135    16982.111      -9.4962      74.8387    4071.7847 
       63000    673.34253    15039.553    15039.553    2005.0991    17044.653      -9.2463      74.5887    4187.4161 
       64000    709.92983    15162.306    15162.306    2114.0498    17276.355      -8.9964      74.3387    4195.2574 
       65000    679.97702    15253.991    15253.991    2024.8555    17278.846      -8.7465      74.0887    4257.1749 
       66000    683.63839    15360.832    15360.832    2035.7584    17396.591      -8.4966      73.8387    4294.0363 
       67000    716.17394    15458.271    15458.271    2132.6437    17590.915      -8.2467      73.5887    4309.2749 
       68000     692.9794    15573.363    15573.363    2063.5743    17636.938      -7.9968      73.3387    4369.4393 
       69000    727.53168    15685.032    15685.032    2166.4651    17851.498      -7.7469      73.0887    4484.2794 
       70000    717.14615    15800.721    15800.721    2135.5388     17936.26       -7.497      72.8387    4472.3872 
       71000    656.27125    15912.968    15912.968    1954.2637    17867.231      -7.2471      72.5887    4514.0052 
       72000    713.12585    16045.427    16045.427     2123.567    18168.994      -6.9972      72.3387     4568.582 
       73000    703.76047    16152.614    16152.614    2095.6785    18248.292      -6.7473      72.0887    4633.3886 
       74000    703.14587    16261.667    16261.667    2093.8483    18355.515      -6.4974      71.8387    4639.9064 
       75000    705.22617    16381.835    16381.835    2100.0431    18481.879      -6.2475      71.5887    4745.0464 
       76000    677.71144    16510.295    16510.295    2018.1089    18528.404      -5.9976      71.3387     4765.708 
       77000    677.96913    16648.638    16648.638    2018.8763    18667.514      -5.7477      71.0887    4939.7321 
       78000    705.98358    16760.509    16760.509    2102.2985    18862.807      -5.4978      70.8387    4991.3217 
       79000    703.25222    16890.111    16890.111     2094.165    18984.276      -5.2479      70.5887     5076.769 
       80000    711.31889    17015.717    17015.717    2118.1862    19133.904       -4.998      70.3387    5074.2156 
       81000     687.9105    17169.527    17169.527      2048.48    19218.007      -4.7481      70.0887    5135.4047 
       82000    703.50371    17282.957    17282.957    2094.9139    19377.871      -4.4982      69.8387    5212.3488 
       83000     705.9384    17418.662    17418.662     2102.164    19520.826      -4.2483      69.5887    5320.2315 
       84000    694.74665    17535.485    17535.485    2068.8369    19604.322      -3.9984      69.3387    5335.8016 
       85000    723.58061    17678.207    17678.207    2154.6995    19832.907      -3.7485      69.0887    5372.9768 
       86000    699.73785    17823.031    17823.031    2083.6998    19906.731      -3.4986      68.8387    5482.7358 
       87000    700.98559    17986.935    17986.935    2087.4154     20074.35      -3.2487      68.5887    5664.8384 
       88000    689.92144    18113.843    18113.843    2054.4682    20168.311      -2.9988      68.3387    5680.7256 
       89000    671.14626    18255.748    18255.748     1998.559    20254.307      -2.7489      68.0887    5715.8503 
       90000    712.87011    18405.449    18405.449    2122.8055    20528.254       -2.499      67.8387    5904.0889 
       91000    731.24913    18516.671    18516.671     2177.535    20694.206      -2.2491      67.5887    5909.4018 
       92000    711.30148     18675.06     18675.06    2118.1343    20793.194      -1.9992      67.3387    6024.4871 
       93000    698.33163    18829.524    18829.524    2079.5124    20909.036      -1.7493      67.0887    5997.8768 
       94000    698.37531    18994.088    18994.088    2079.6424     21073.73      -1.4994      66.8387    6177.9183 
       95000    697.74599    19157.387    19157.387    2077.7684    21235.155      -1.2495      66.5887    6230.6897 
       96000    695.60181    19294.541    19294.541    2071.3834    21365.925      -0.9996      66.3387    6268.4637 
       97000    695.99087     19455.28     19455.28    2072.5419    21527.822      -0.7497      66.0887    6393.0841 
       98000    683.80746    19647.903    19647.903    2036.2619    21684.165      -0.4998      65.8387    6543.0589 
       99000    729.58875    19812.829    19812.829    2172.5907     21985.42      -0.2499      65.5887    6545.5906 
      100000    711.92608    19998.498    19998.498    2119.9943    22118.492            0      65.3387    6692.0267 
Loop time of 102.72 on 20 procs for 100000 steps with 1000 atoms

Performance: 84.112 ns/day, 0.285 hours/ns, 973.517 timesteps/s
98.5% CPU use with 20 MPI tasks x no OpenMP threads

MPI task timing breakdown:
Section |  min time  |  avg time  |  max time  |%varavg| %total
---------------------------------------------------------------
Pair    | 0.013116   | 38.499     | 86.79      | 575.3 | 37.48
Bond    | 0.0060761  | 0.0093135  | 0.012585   |   2.4 |  0.01
Neigh   | 0.0011966  | 0.016617   | 0.03975    |  11.4 |  0.02
Comm    | 12.336     | 32.502     | 65.692     | 323.7 | 31.64
Output  | 0.13525    | 0.2774     | 2.45       |  94.7 |  0.27
Modify  | 1.8926     | 30.571     | 85.985     | 629.6 | 29.76
Other   |            | 0.8448     |            |       |  0.82

Nlocal:    50 ave 93 max 0 min
Histogram: 8 0 0 0 0 0 0 0 6 6
Nghost:    2671.45 ave 2695 max 2653 min
Histogram: 4 1 2 1 3 5 0 0 2 2
Neighs:    22046.5 ave 52707 max 0 min
Histogram: 8 0 0 3 1 0 0 3 3 2

Total # of neighbors = 440931
Ave neighs/atom = 440.931
Ave special neighs/atom = 0
Neighbor list builds = 33
Dangerous builds = 0

write_dump all custom after_deform.atom id type xu yu zu

unfix 1

run 100000
Memory usage per processor = 5.44962 Mbytes
Time Temp E_vdwl PotEng KinEng TotEng Zlo Zhi Press 
      100000    711.92608    20000.469    20000.469    2119.9943    22120.463            0      65.3387    6694.1012 
      101000    714.41023     19949.45     19949.45    2127.3917    22076.842            0      65.3387    6723.8311 
      102000    704.16902    19941.815    19941.815    2096.8951     22038.71            0      65.3387    6698.1875 
      103000    698.99019    19918.137    19918.137    2081.4734     21999.61            0      65.3387    6683.2696 
      104000    702.17341    19863.886    19863.886    2090.9525    21954.838            0      65.3387    6534.7188 
      105000    695.52503    19848.324    19848.324    2071.1548    21919.478            0      65.3387    6584.9054 
      106000    708.65016    19817.953    19817.953    2110.2392    21928.192            0      65.3387    6609.5264 
      107000     697.4113    19804.817    19804.817    2076.7718    21881.589            0      65.3387    6539.8235 
      108000    700.02734    19776.778    19776.778    2084.5619     21861.34            0      65.3387    6632.3367 
      109000    685.02089    19749.537    19749.537    2039.8752    21789.412            0      65.3387    6547.5741 
      110000    702.02541    19740.726    19740.726    2090.5118    21831.238            0      65.3387    6502.5141 
      111000    683.24635    19728.529    19728.529     2034.591     21763.12            0      65.3387    6631.0906 
      112000    705.95508    19712.255    19712.255    2102.2137    21814.469            0      65.3387    6568.4569 
      113000    696.93221    19668.593    19668.593    2075.3451    21743.938            0      65.3387    6610.0858 
      114000    658.53799    19656.452    19656.452    1961.0137    21617.465            0      65.3387    6534.9092 
      115000    711.70519    19628.466    19628.466    2119.3365    21747.802            0      65.3387     6529.971 
      116000    706.96461    19634.451    19634.451    2105.2199    21739.671            0      65.3387    6534.6195 
      117000    721.10367     19632.28     19632.28    2147.3236    21779.604            0      65.3387     6564.749 
      118000     707.0209    19617.039    19617.039    2105.3875    21722.427            0      65.3387    6642.5803 
      119000    704.16335    19578.588    19578.588    2096.8782    21675.467            0      65.3387    6506.4542 
      120000    711.15617    19592.591    19592.591    2117.7016    21710.292            0      65.3387    6616.8082 
      121000    667.29018    19548.011    19548.011    1987.0762    21535.087            0      65.3387    6533.8262 
      122000    682.06271    19544.218    19544.218    2031.0663    21575.284            0      65.3387    6476.1524 
      123000    713.09264    19509.857    19509.857    2123.4681    21633.325            0      65.3387    6458.5561 
      124000    713.39695    19477.351    19477.351    2124.3743    21601.725            0      65.3387      6427.14 
      125000    686.01126    19464.652    19464.652    2042.8244    21507.476            0      65.3387    6430.0587 
      126000    706.38187    19487.886    19487.886    2103.4846     21591.37            0      65.3387     6503.243 
      127000    698.62037    19455.336    19455.336    2080.3722    21535.708            0      65.3387    6521.6066 
      128000    694.48883    19455.535    19455.535    2068.0692    21523.605            0      65.3387    6494.2829 
      129000    719.90835    19438.793    19438.793    2143.7641    21582.557            0      65.3387    6480.5929 
      130000    711.85379    19435.744    19435.744     2119.779    21555.523            0      65.3387    6456.9925 
      131000    702.28401    19389.586    19389.586    2091.2819    21480.868            0      65.3387    6494.6011 
      132000    686.73186    19390.216    19390.216    2044.9702    21435.186            0      65.3387    6475.2953 
      133000     713.6272    19382.349    19382.349    2125.0599    21507.409            0      65.3387    6436.0028 
      134000    668.05299    19397.835    19397.835    1989.3477    21387.183            0      65.3387    6478.5872 
      135000    714.97685    19352.501    19352.501     2129.079     21481.58            0      65.3387    6434.4421 
      136000    709.41024    19347.696    19347.696    2112.5026    21460.199            0      65.3387    6461.2848 
      137000    676.79056    19327.976    19327.976    2015.3667    21343.342            0      65.3387    6442.8534 
      138000    702.64965    19328.181    19328.181    2092.3707    21420.551            0      65.3387    6434.0279 
      139000    685.73005    19332.863    19332.863     2041.987     21374.85            0      65.3387    6438.4109 
      140000    699.74902    19280.227    19280.227    2083.7331     21363.96            0      65.3387    6436.0776 
      141000    700.63788    19271.526    19271.526      2086.38    21357.906            0      65.3387     6458.162 
      142000    705.34509    19247.308    19247.308    2100.3972    21347.705            0      65.3387    6454.9386 
      143000    678.26932    19253.967    19253.967    2019.7702    21273.737            0      65.3387    6435.4131 
      144000    705.50277    19213.573    19213.573    2100.8668    21314.439            0      65.3387    6369.5593 
      145000     722.1839    19226.448    19226.448    2150.5403    21376.988            0      65.3387    6483.3805 
      146000    716.38967    19196.646    19196.646    2133.2861    21329.932            0      65.3387    6379.4275 
      147000     687.6277    19181.005    19181.005    2047.6379    21228.643            0      65.3387    6433.4212 
      148000    680.02894    19160.316    19160.316    2025.0101    21185.326            0      65.3387    6365.9713 
      149000    686.42308    19164.755    19164.755    2044.0507    21208.806            0      65.3387    6407.7982 
      150000    683.55312    19185.541    19185.541    2035.5045    21221.046            0      65.3387    6449.9241 
      151000    727.37704    19177.362    19177.362    2166.0046    21343.367            0      65.3387    6512.9128 
      152000    738.35634     19146.67     19146.67    2198.6991    21345.369            0      65.3387    6447.6542 
      153000    697.12069    19128.756    19128.756    2075.9064    21204.662            0      65.3387    6361.1304 
      154000    731.54789    19109.009    19109.009    2178.4247    21287.434            0      65.3387    6376.1486 
      155000    711.26282    19097.611    19097.611    2118.0192     21215.63            0      65.3387    6413.6001 
      156000    711.21592    19069.884    19069.884    2117.8796    21187.764            0      65.3387    6396.3512 
      157000     706.4032    19054.882    19054.882    2103.5481     21158.43            0      65.3387    6351.0034 
      158000    699.56421     19039.25     19039.25    2083.1828    21122.433            0      65.3387    6373.8455 
      159000     702.8172    19019.596    19019.596    2092.8696    21112.466            0      65.3387    6358.6097 
      160000    687.96899    18985.569    18985.569    2048.6542    21034.223            0      65.3387    6363.7983 
      161000    696.60171    18991.125    18991.125    2074.3609    21065.486            0      65.3387    6450.0454 
      162000    710.68359     18977.51     18977.51    2116.2944    21093.805            0      65.3387    6361.3678 
      163000    688.98441     18960.62     18960.62    2051.6779    21012.298            0      65.3387    6382.6539 
      164000    706.71595    18951.558    18951.558    2104.4794    21056.038            0      65.3387    6370.4839 
      165000    713.12719    18945.404    18945.404     2123.571    21068.975            0      65.3387    6350.0105 
      166000    706.31174    18944.431    18944.431    2103.2757    21047.707            0      65.3387    6262.7707 
      167000    700.08995     18942.71     18942.71    2084.7483    21027.458            0      65.3387    6267.6821 
      168000    713.60548    18931.911    18931.911    2124.9953    21056.906            0      65.3387     6352.592 
      169000    696.10715    18927.856    18927.856    2072.8882    21000.744            0      65.3387    6327.0259 
      170000    706.18856     18910.22     18910.22    2102.9089    21013.128            0      65.3387      6312.99 
      171000    702.94327    18899.031    18899.031     2093.245    20992.276            0      65.3387    6265.1643 
      172000    678.20556    18898.644    18898.644    2019.5803    20918.224            0      65.3387    6334.4699 
      173000    685.74599    18882.846    18882.846    2042.0345     20924.88            0      65.3387    6391.8981 
      174000    676.42027    18878.405    18878.405    2014.2641    20892.669            0      65.3387    6279.4121 
      175000    682.49784    18858.081    18858.081     2032.362    20890.443            0      65.3387    6322.0028 
      176000    713.40088    18848.443    18848.443     2124.386    20972.829            0      65.3387    6369.2806 
      177000    681.28246    18837.277    18837.277    2028.7428    20866.019            0      65.3387    6239.1257 
      178000     685.0457    18829.471    18829.471    2039.9491     20869.42            0      65.3387    6239.1874 
      179000    700.49703    18814.546    18814.546    2085.9605    20900.506            0      65.3387    6228.9249 
      180000    692.39734    18808.543    18808.543     2061.841    20870.384            0      65.3387    6306.7088 
      181000    716.34721    18796.328    18796.328    2133.1597    20929.487            0      65.3387    6292.7071 
      182000     698.2201    18777.689    18777.689    2079.1802    20856.869            0      65.3387      6363.06 
      183000    683.50296    18765.665    18765.665    2035.3551    20801.021            0      65.3387    6250.4883 
      184000    718.97098    18754.341    18754.341    2140.9728    20895.313            0      65.3387    6274.5686 
      185000    706.38969    18743.531    18743.531    2103.5079    20847.039            0      65.3387    6330.0091 
      186000    672.72868     18730.87     18730.87    2003.2711    20734.141            0      65.3387    6264.2638 
      187000    712.22745    18712.422    18712.422    2120.8917    20833.313            0      65.3387    6309.6812 
      188000     709.6652    18711.723    18711.723    2113.2618    20824.985            0      65.3387    6348.0248 
      189000    706.02573    18705.577    18705.577     2102.424    20808.001            0      65.3387    6349.0292 
      190000    686.88418    18692.774    18692.774    2045.4238    20738.198            0      65.3387    6252.6277 
      191000    695.18795    18695.868    18695.868     2070.151    20766.019            0      65.3387    6272.9607 
      192000    701.29008    18687.547    18687.547    2088.3221    20775.869            0      65.3387    6240.6289 
      193000    693.35482    18679.722    18679.722    2064.6922    20744.414            0      65.3387    6362.9058 
      194000    712.71711    18681.999    18681.999    2122.3499    20804.349            0      65.3387    6160.2182 
      195000    669.50038    18690.594    18690.594    1993.6578    20684.251            0      65.3387     6255.185 
      196000    712.18838    18665.778    18665.778    2120.7754    20786.553            0      65.3387    6274.4945 
      197000    703.35151    18661.219    18661.219    2094.4607    20755.679            0      65.3387    6287.3919 
      198000    698.84858    18642.444    18642.444    2081.0517    20723.495            0      65.3387    6299.1894 
      199000    701.66835     18633.83     18633.83    2089.4485    20723.278            0      65.3387    6326.0734 
      200000    722.33167    18621.738    18621.738    2150.9804    20772.718            0      65.3387    6330.8433 
Loop time of 120.052 on 20 procs for 100000 steps with 1000 atoms

Performance: 71.969 ns/day, 0.333 hours/ns, 832.972 timesteps/s
98.7% CPU use with 20 MPI tasks x no OpenMP threads

MPI task timing breakdown:
Section |  min time  |  avg time  |  max time  |%varavg| %total
---------------------------------------------------------------
Pair    | 0.20394    | 45.137     | 107.27     | 610.3 | 37.60
Bond    | 0.0069103  | 0.010158   | 0.013613   |   2.1 |  0.01
Neigh   | 0.00020599 | 0.0021415  | 0.0049539  |   3.8 |  0.00
Comm    | 9.3492     | 70.737     | 114.6      | 476.0 | 58.92
Output  | 0.13387    | 0.18052    | 0.51153    |  18.4 |  0.15
Modify  | 1.996      | 3.145      | 6.7172     |  69.2 |  2.62
Other   |            | 0.8404     |            |       |  0.70

Nlocal:    50 ave 90 max 3 min
Histogram: 8 0 0 0 0 0 0 1 6 5
Nghost:    2656 ave 2695 max 2593 min
Histogram: 1 1 1 1 1 5 0 4 2 4
Neighs:    21860.4 ave 49664 max 442 min
Histogram: 8 0 0 3 1 0 0 1 4 3

Total # of neighbors = 437208
Ave neighs/atom = 437.208
Ave special neighs/atom = 0
Neighbor list builds = 4
Dangerous builds = 0

write_dump all custom confout.atom id type xu yu zu
Total wall time: 0:03:42
